 Gaussian 16, Revision C.01,
 Gaussian 16:  EM64L-G16RevC.01  3-Jul-2019

 ----------------------------------------------------------------------
 #P TD(Nstates=10000) tpsstpss/Gen SCF(maxcycles=100) Int(Grid=ultrafin
 e)
 ----------------------------------------------------------------------

 ---------------------
 xGDB7_00001_tier4.com
 ---------------------
 Symbolic Z-matrix:
 Charge =  0 Multiplicity = 1

                         Standard orientation:
 ---------------------------------------------------------------------
 Center     Atomic      Atomic             Coordinates (Angstroms)
 Number     Number       Type             X           Y           Z
 ---------------------------------------------------------------------
      1          6           0        0.037922   -0.393776    0.738519
      2          6           0        0.037922   -0.393776   -0.738519
      3          7           0        0.037922    0.865964    0.000000
      4          1           0        0.953211   -0.606479    1.276872
      5          1           0       -0.870248   -0.700655    1.244917
      6          1           0       -0.870248   -0.700655   -1.244917
      7          1           0        0.953211   -0.606479   -1.276872
      8          1           0       -0.886454    1.277834    0.000000
 ---------------------------------------------------------------------

 SCF Done:  E(RTPSS-TPSS) =  -133.860853140     A.U. after   12 cycles

 Excitation energies and oscillator strengths:

 Excited State   1:      Singlet-A'     6.2981 eV  196.86 nm  f=0.0027  <S**2>=0.000
      12 -> 13         0.70636
 This state for optimization and/or second-order correction.
 Total Energy, E(TD-HF/TD-DFT) =  -133.629400531
 Copying the excited state density for this state as the 1-particle RhoCI density.

 Excited State   2:      Singlet-A"     6.9945 eV  177.26 nm  f=0.0030  <S**2>=0.000
      12 -> 15         0.70680

 Excited State   3:      Singlet-A'     7.0585 eV  175.65 nm  f=0.0268  <S**2>=0.000
      12 -> 14         0.70616

 Excited State   4:      Singlet-A'     7.8511 eV  157.92 nm  f=0.0786  <S**2>=0.000
      12 -> 16         0.70413

 Excited State   5:      Singlet-A'     8.6360 eV  143.57 nm  f=0.0070  <S**2>=0.000
      11 -> 13         0.70488

 Excited State   6:      Singlet-A"     8.6502 eV  143.33 nm  f=0.0383  <S**2>=0.000
      12 -> 17         0.69388

 Excited State   7:      Singlet-A'     8.9169 eV  139.04 nm  f=0.0055  <S**2>=0.000
      12 -> 18         0.70245

 Excited State   8:      Singlet-A"     8.9473 eV  138.57 nm  f=0.0025  <S**2>=0.000
      10 -> 13         0.70392

 Excited State   9:      Singlet-A"     9.3686 eV  132.34 nm  f=0.0423  <S**2>=0.000
      11 -> 15         0.69248

 Excited State  10:      Singlet-A"     9.3963 eV  131.95 nm  f=0.0223  <S**2>=0.000
      12 -> 19         0.70384

 Excited State  11:      Singlet-A'     9.4056 eV  131.82 nm  f=0.0343  <S**2>=0.000
      11 -> 14         0.69796

 Excited State  12:      Singlet-A"     9.6784 eV  128.10 nm  f=0.0001  <S**2>=0.000
       9 -> 13         0.65353
      10 -> 14        -0.26552

 Excited State  13:      Singlet-A'     9.6802 eV  128.08 nm  f=0.0291  <S**2>=0.000
      10 -> 15         0.69459
      12 -> 20        -0.10079

 Excited State  14:      Singlet-A"     9.7113 eV  127.67 nm  f=0.0707  <S**2>=0.000
       9 -> 13         0.26461
      10 -> 14         0.64290

 Excited State  15:      Singlet-A'     9.8144 eV  126.33 nm  f=0.0232  <S**2>=0.000
      12 -> 20         0.69286

 Excited State  16:      Singlet-A'    10.1720 eV  121.89 nm  f=0.0247  <S**2>=0.000
      11 -> 16         0.69951

 Excited State  17:      Singlet-A"    10.3993 eV  119.22 nm  f=0.0042  <S**2>=0.000
       9 -> 14         0.56155
      10 -> 16        -0.41456

 Excited State  18:      Singlet-A'    10.4430 eV  118.72 nm  f=0.0764  <S**2>=0.000
       9 -> 15         0.70415

 Excited State  19:      Singlet-A"    10.4529 eV  118.61 nm  f=0.0070  <S**2>=0.000
       9 -> 14         0.36864
      10 -> 16         0.51973
      11 -> 17        -0.12954
      12 -> 21         0.27550

 Excited State  20:      Singlet-A"    10.5323 eV  117.72 nm  f=0.0047  <S**2>=0.000
       9 -> 14        -0.21367
      10 -> 16        -0.19329
      12 -> 21         0.64003

 Excited State  21:      Singlet-A"    10.7521 eV  115.31 nm  f=0.0021  <S**2>=0.000
      12 -> 22         0.70342

 Excited State  22:      Singlet-A'    10.9301 eV  113.43 nm  f=0.0027  <S**2>=0.000
      10 -> 17        -0.16061
      12 -> 23         0.66753
      12 -> 24        -0.13053

 Excited State  23:      Singlet-A'    11.1753 eV  110.95 nm  f=0.0424  <S**2>=0.000
      10 -> 17        -0.33582
      11 -> 18         0.36089
      12 -> 24         0.49527

 Excited State  24:      Singlet-A"    11.2014 eV  110.69 nm  f=0.2465  <S**2>=0.000
       9 -> 16        -0.36993
      10 -> 16         0.11424
      11 -> 17         0.55018

 Excited State  25:      Singlet-A'    11.3104 eV  109.62 nm  f=0.0113  <S**2>=0.000
      10 -> 17         0.14622
      11 -> 18         0.59833
      12 -> 24        -0.32967

 Excited State  26:      Singlet-A"    11.3458 eV  109.28 nm  f=0.0118  <S**2>=0.000
       9 -> 16         0.58675
      11 -> 17         0.32426
      11 -> 19        -0.13002

 Excited State  27:      Singlet-A"    11.5516 eV  107.33 nm  f=0.0003  <S**2>=0.000
      10 -> 18         0.70014

 Excited State  28:      Singlet-A'    11.6576 eV  106.36 nm  f=0.0123  <S**2>=0.000
       9 -> 17         0.18815
      10 -> 17         0.11662
      12 -> 25         0.66005

 Excited State  29:      Singlet-A'    11.7314 eV  105.69 nm  f=0.0102  <S**2>=0.000
       9 -> 17         0.47250
      10 -> 17         0.30855
      11 -> 20         0.21298
      12 -> 24         0.20729
      12 -> 25        -0.23064
      12 -> 27        -0.13015

 Excited State  30:      Singlet-A"    11.7400 eV  105.61 nm  f=0.0098  <S**2>=0.000
      11 -> 19         0.68770

 Excited State  31:      Singlet-A'    11.8099 eV  104.98 nm  f=0.0207  <S**2>=0.000
       9 -> 17         0.47885
      10 -> 17        -0.31078
      11 -> 20        -0.27948
      12 -> 23        -0.12013
      12 -> 24        -0.17143
      12 -> 27         0.17335

 Excited State  32:      Singlet-A'    12.0378 eV  103.00 nm  f=0.0143  <S**2>=0.000
      10 -> 19         0.69681

 Excited State  33:      Singlet-A'    12.1762 eV  101.83 nm  f=0.0270  <S**2>=0.000
       8 -> 13         0.69298

 Excited State  34:      Singlet-A"    12.3169 eV  100.66 nm  f=0.0334  <S**2>=0.000
       9 -> 18         0.17466
      11 -> 21         0.10169
      12 -> 26         0.65626

 Excited State  35:      Singlet-A"    12.3370 eV  100.50 nm  f=0.0117  <S**2>=0.000
       9 -> 18         0.67285
      10 -> 20        -0.11829
      12 -> 26        -0.15414

 Excited State  36:      Singlet-A'    12.3787 eV  100.16 nm  f=0.0121  <S**2>=0.000
       9 -> 19        -0.17413
      10 -> 17        -0.14492
      10 -> 21         0.10144
      11 -> 20         0.52758
      12 -> 24        -0.13614
      12 -> 27         0.30057

 Excited State  37:      Singlet-A"    12.4089 eV   99.92 nm  f=0.0068  <S**2>=0.000
      10 -> 20         0.68448

 Excited State  38:      Singlet-A'    12.6803 eV   97.78 nm  f=0.0690  <S**2>=0.000
       8 -> 14         0.27763
      10 -> 17         0.17669
      10 -> 21         0.15524
      11 -> 20        -0.12535
      12 -> 27         0.50230
      12 -> 28        -0.23322

 Excited State  39:      Singlet-A'    12.8716 eV   96.32 nm  f=0.0205  <S**2>=0.000
       8 -> 14        -0.39780
       9 -> 19         0.51789
      10 -> 21         0.20171
      12 -> 27         0.10133

 Excited State  40:      Singlet-A"    12.8772 eV   96.28 nm  f=0.0001  <S**2>=0.000
       8 -> 15        -0.21784
      11 -> 21         0.65261

 Excited State  41:      Singlet-A"    12.8946 eV   96.15 nm  f=0.1066  <S**2>=0.000
       8 -> 15         0.66825
      11 -> 21         0.20492

 Excited State  42:      Singlet-A'    13.0207 eV   95.22 nm  f=0.2226  <S**2>=0.000
       8 -> 14         0.48956
       9 -> 19         0.34331
      10 -> 21         0.15933
      11 -> 25        -0.11156
      12 -> 27        -0.12201
      12 -> 28         0.20523

 Excited State  43:      Singlet-A"    13.0925 eV   94.70 nm  f=0.0268  <S**2>=0.000
       9 -> 20         0.41484
      11 -> 22         0.56597

 Excited State  44:      Singlet-A"    13.1737 eV   94.11 nm  f=0.0020  <S**2>=0.000
       9 -> 20         0.55941
      11 -> 22        -0.39344

 Excited State  45:      Singlet-A'    13.1782 eV   94.08 nm  f=0.0230  <S**2>=0.000
      10 -> 21        -0.12286
      11 -> 23        -0.35932
      11 -> 24        -0.12774
      12 -> 27         0.16010
      12 -> 28         0.51990

 Excited State  46:      Singlet-A'    13.2542 eV   93.54 nm  f=0.0429  <S**2>=0.000
       7 -> 13        -0.10969
       8 -> 16        -0.10674
      10 -> 21         0.18383
      11 -> 23         0.54208
      12 -> 28         0.30298

 Excited State  47:      Singlet-A'    13.3316 eV   93.00 nm  f=0.0075  <S**2>=0.000
       7 -> 13        -0.33066
       8 -> 16        -0.15853
       9 -> 19        -0.12555
      10 -> 21         0.50213
      11 -> 23        -0.23712
      12 -> 27        -0.10625

 Excited State  48:      Singlet-A'    13.4089 eV   92.46 nm  f=0.0052  <S**2>=0.000
      10 -> 22         0.67533
      11 -> 24        -0.19483

 Excited State  49:      Singlet-A"    13.4534 eV   92.16 nm  f=0.0026  <S**2>=0.000
      12 -> 29         0.69322

 Excited State  50:      Singlet-A"    13.5119 eV   91.76 nm  f=0.0124  <S**2>=0.000
      10 -> 23         0.69637

 Excited State  51:      Singlet-A'    13.5808 eV   91.29 nm  f=0.0181  <S**2>=0.000
       7 -> 13        -0.18385
       8 -> 16         0.20912
      10 -> 22         0.15591
      11 -> 24         0.58413
      12 -> 28         0.10770

 Excited State  52:      Singlet-A'    13.7048 eV   90.47 nm  f=0.0789  <S**2>=0.000
       7 -> 13         0.43131
       8 -> 16        -0.39649
       9 -> 21         0.16948
       9 -> 22        -0.17905
      11 -> 24         0.23193

 Excited State  53:      Singlet-A"    13.8575 eV   89.47 nm  f=0.0319  <S**2>=0.000
      10 -> 24         0.68763

 Excited State  54:      Singlet-A'    13.9118 eV   89.12 nm  f=0.0173  <S**2>=0.000
       8 -> 16         0.23286
       9 -> 21         0.60912
       9 -> 22         0.15466
      11 -> 25        -0.17236

 Excited State  55:      Singlet-A'    14.0529 eV   88.23 nm  f=0.0219  <S**2>=0.000
       7 -> 13         0.11001
       9 -> 21        -0.14940
      12 -> 30         0.65452

 Excited State  56:      Singlet-A'    14.1318 eV   87.73 nm  f=0.0264  <S**2>=0.000
       7 -> 13        -0.15805
       7 -> 14         0.47439
       8 -> 16        -0.18369
       9 -> 22        -0.14676
      10 -> 21        -0.12555
      11 -> 25        -0.36354
      12 -> 30         0.10951

 Excited State  57:      Singlet-A'    14.1698 eV   87.50 nm  f=0.0770  <S**2>=0.000
       7 -> 13        -0.20836
       7 -> 16        -0.15184
       8 -> 16        -0.27221
       9 -> 19         0.13861
       9 -> 21         0.22970
      10 -> 21        -0.10866
      11 -> 25         0.39641
      12 -> 30         0.21935

 Excited State  58:      Singlet-A"    14.1954 eV   87.34 nm  f=0.0001  <S**2>=0.000
       8 -> 17         0.34932
       9 -> 23         0.52469
      10 -> 25         0.31483

 Excited State  59:      Singlet-A"    14.2570 eV   86.96 nm  f=0.0238  <S**2>=0.000
       7 -> 15         0.67818
      10 -> 25         0.13473
      12 -> 31         0.11156

 Excited State  60:      Singlet-A"    14.2900 eV   86.76 nm  f=0.0093  <S**2>=0.000
       7 -> 15         0.12466
       8 -> 17         0.56547
       9 -> 23        -0.17214
      10 -> 25        -0.34180

 Excited State  61:      Singlet-A'    14.3332 eV   86.50 nm  f=0.1538  <S**2>=0.000
       7 -> 14        -0.15752
       8 -> 16        -0.18716
       8 -> 18         0.12128
       9 -> 22         0.53196
      10 -> 26         0.14163
      11 -> 25        -0.24673

 Excited State  62:      Singlet-A"    14.4222 eV   85.97 nm  f=0.0509  <S**2>=0.000
       7 -> 15        -0.12666
       8 -> 17         0.17144
       9 -> 23        -0.31989
       9 -> 24        -0.26636
      10 -> 25         0.30399
      12 -> 31         0.42740

 Excited State  63:      Singlet-A'    14.4488 eV   85.81 nm  f=0.2853  <S**2>=0.000
       7 -> 13         0.14953
       7 -> 14         0.45904
       8 -> 18         0.29212
       9 -> 22         0.23915
      10 -> 21         0.11699
      11 -> 25         0.23247
      12 -> 32         0.10276

 Excited State  64:      Singlet-A"    14.4805 eV   85.62 nm  f=0.0030  <S**2>=0.000
       9 -> 23         0.17021
       9 -> 24         0.32286
      10 -> 25        -0.25426
      12 -> 31         0.52488

 Excited State  65:      Singlet-A"    14.6176 eV   84.82 nm  f=0.0000  <S**2>=0.000
      11 -> 26         0.68855

 Excited State  66:      Singlet-A'    14.7347 eV   84.14 nm  f=0.0490  <S**2>=0.000
      10 -> 26         0.14975
      11 -> 27         0.26834
      12 -> 32         0.60100

 Excited State  67:      Singlet-A'    14.8045 eV   83.75 nm  f=0.0291  <S**2>=0.000
      10 -> 26        -0.34508
      11 -> 27         0.58146
      12 -> 32        -0.15604

 Excited State  68:      Singlet-A"    14.8209 eV   83.66 nm  f=0.3851  <S**2>=0.000
       9 -> 23        -0.18376
       9 -> 24         0.52420
       9 -> 25         0.21497
      10 -> 25         0.25908
      10 -> 28         0.11206
      11 -> 26         0.10584

 Excited State  69:      Singlet-A'    14.8825 eV   83.31 nm  f=0.1023  <S**2>=0.000
       7 -> 14        -0.10550
       7 -> 16        -0.28525
       8 -> 18         0.48195
      10 -> 26        -0.31704
      11 -> 27        -0.10136
      12 -> 32         0.13461

 Excited State  70:      Singlet-A"    15.0575 eV   82.34 nm  f=0.0024  <S**2>=0.000
       8 -> 19        -0.11013
       9 -> 25        -0.33584
      10 -> 27         0.60187

 Excited State  71:      Singlet-A'    15.1082 eV   82.06 nm  f=0.1166  <S**2>=0.000
       7 -> 16        -0.18620
       8 -> 18         0.17976
       9 -> 22        -0.10348
      10 -> 26         0.37168
      11 -> 27         0.16381
      12 -> 32        -0.15863
      12 -> 33         0.43470

 Excited State  72:      Singlet-A"    15.2105 eV   81.51 nm  f=0.0664  <S**2>=0.000
       8 -> 19        -0.17249
       9 -> 24        -0.12420
       9 -> 25         0.56159
      10 -> 27         0.30502
      11 -> 29         0.10184

 Excited State  73:      Singlet-A'    15.2779 eV   81.15 nm  f=0.2615  <S**2>=0.000
       7 -> 13        -0.10963
       7 -> 16         0.52149
       8 -> 18         0.30391
       9 -> 22        -0.10838
      11 -> 27         0.12038

 Excited State  74:      Singlet-A"    15.3192 eV   80.93 nm  f=0.0086  <S**2>=0.000
       6 -> 13         0.10836
       8 -> 19         0.65474
      10 -> 27         0.14713

 Excited State  75:      Singlet-A'    15.3477 eV   80.78 nm  f=0.1603  <S**2>=0.000
       7 -> 16         0.21844
       7 -> 18        -0.12385
       8 -> 16        -0.10063
       8 -> 18        -0.10890
       9 -> 22         0.11627
      10 -> 26        -0.25003
      11 -> 27        -0.12398
      12 -> 33         0.52596

 Excited State  76:      Singlet-A'    15.4568 eV   80.21 nm  f=0.0342  <S**2>=0.000
      11 -> 28         0.67834

 Excited State  77:      Singlet-A"    15.5122 eV   79.93 nm  f=0.0410  <S**2>=0.000
       7 -> 17         0.11824
      10 -> 28        -0.11994
      12 -> 34         0.68091

 Excited State  78:      Singlet-A"    15.5865 eV   79.55 nm  f=0.0034  <S**2>=0.000
       7 -> 17         0.57971
      10 -> 28         0.26679
      11 -> 29         0.26988

 Excited State  79:      Singlet-A'    15.6471 eV   79.24 nm  f=0.0175  <S**2>=0.000
       8 -> 20         0.59676
       9 -> 26        -0.35666

 Excited State  80:      Singlet-A"    15.7177 eV   78.88 nm  f=0.0516  <S**2>=0.000
       6 -> 13         0.26022
       7 -> 17        -0.32086
       9 -> 27         0.19546
      10 -> 28         0.48889
      11 -> 29         0.14256
      12 -> 34         0.13831

 Excited State  81:      Singlet-A'    15.7676 eV   78.63 nm  f=0.2299  <S**2>=0.000
       8 -> 20         0.31098
       9 -> 26         0.57329
      10 -> 29         0.16555

 Excited State  82:      Singlet-A"    15.7879 eV   78.53 nm  f=0.0128  <S**2>=0.000
       7 -> 17         0.11117
       9 -> 27         0.52929
      11 -> 29        -0.44185

 Excited State  83:      Singlet-A"    15.8410 eV   78.27 nm  f=0.0526  <S**2>=0.000
       6 -> 13         0.56674
       7 -> 17         0.14174
       9 -> 27        -0.22636
      11 -> 29        -0.29183

 Excited State  84:      Singlet-A"    16.0271 eV   77.36 nm  f=0.1448  <S**2>=0.000
       6 -> 13        -0.21979
       8 -> 21         0.12809
       9 -> 27        -0.30014
       9 -> 28        -0.12661
      10 -> 28         0.30833
      11 -> 29        -0.28587
      11 -> 31         0.14077
      12 -> 35         0.29423

 Excited State  85:      Singlet-A"    16.1314 eV   76.86 nm  f=0.0244  <S**2>=0.000
       6 -> 13         0.10271
       9 -> 27         0.12633
      10 -> 28        -0.14186
      12 -> 35         0.62841

 Excited State  86:      Singlet-A'    16.2302 eV   76.39 nm  f=0.0888  <S**2>=0.000
       6 -> 15         0.12841
       7 -> 18         0.60086
      10 -> 29         0.20380
      11 -> 30         0.15645
      12 -> 36         0.15066

 Excited State  87:      Singlet-A'    16.3548 eV   75.81 nm  f=0.1986  <S**2>=0.000
       7 -> 18        -0.27593
       7 -> 20         0.11772
      10 -> 29         0.51460
      11 -> 30         0.11393
      12 -> 36         0.25764

 Excited State  88:      Singlet-A"    16.3591 eV   75.79 nm  f=0.0000  <S**2>=0.000
       8 -> 21         0.17982
       9 -> 28         0.12966
      12 -> 37         0.66587

 Excited State  89:      Singlet-A"    16.4066 eV   75.57 nm  f=0.0269  <S**2>=0.000
       8 -> 21         0.58824
       8 -> 22         0.10133
       9 -> 28         0.28836
      12 -> 37        -0.21234

 Excited State  90:      Singlet-A'    16.4092 eV   75.56 nm  f=0.0152  <S**2>=0.000
      10 -> 29        -0.10050
      11 -> 30         0.66849
      12 -> 36        -0.14891

 Excited State  91:      Singlet-A"    16.4766 eV   75.25 nm  f=0.0268  <S**2>=0.000
       6 -> 14         0.26281
       8 -> 21        -0.24498
       8 -> 22        -0.11587
       9 -> 28         0.54137
      11 -> 31         0.16321

 Excited State  92:      Singlet-A"    16.5410 eV   74.96 nm  f=0.0091  <S**2>=0.000
       6 -> 14         0.58346
       7 -> 19         0.19453
       8 -> 21         0.13173
       8 -> 22        -0.13656
       9 -> 28        -0.26635

 Excited State  93:      Singlet-A'    16.5467 eV   74.93 nm  f=0.0947  <S**2>=0.000
       5 -> 13        -0.12912
       6 -> 15         0.25092
      10 -> 29        -0.25849
      12 -> 36         0.54956

 Excited State  94:      Singlet-A"    16.6488 eV   74.47 nm  f=0.0298  <S**2>=0.000
       6 -> 14        -0.12187
       7 -> 19         0.62466
       8 -> 22         0.17322
      11 -> 31        -0.23618

 Excited State  95:      Singlet-A"    16.6830 eV   74.32 nm  f=0.0007  <S**2>=0.000
       6 -> 14         0.13194
       8 -> 22         0.49809
      10 -> 30        -0.43906
      11 -> 31         0.11620

 Excited State  96:      Singlet-A'    16.7028 eV   74.23 nm  f=0.0154  <S**2>=0.000
       5 -> 13         0.23770
       5 -> 14        -0.12023
       6 -> 15         0.55068
       8 -> 23         0.12949
      11 -> 32        -0.11858
      12 -> 36        -0.18254
      12 -> 38         0.10499

 Excited State  97:      Singlet-A"    16.7511 eV   74.02 nm  f=0.0040  <S**2>=0.000
       8 -> 22         0.33833
      10 -> 30         0.48938
      11 -> 31         0.35764

 Excited State  98:      Singlet-A'    16.7530 eV   74.01 nm  f=0.0330  <S**2>=0.000
       5 -> 13        -0.15369
       8 -> 23         0.65085
       9 -> 29        -0.10934
      12 -> 38         0.12685

 Excited State  99:      Singlet-A'    16.8320 eV   73.66 nm  f=0.0159  <S**2>=0.000
       8 -> 23        -0.12274
      12 -> 38         0.67318

 Excited State 100:      Singlet-A'    16.8800 eV   73.45 nm  f=0.0261  <S**2>=0.000
       5 -> 13         0.10071
       7 -> 20        -0.14342
       8 -> 23         0.12887
       9 -> 29         0.65127

 Excited State 101:      Singlet-A'    16.9415 eV   73.18 nm  f=0.0066  <S**2>=0.000
       5 -> 13         0.55036
       6 -> 15        -0.14308
       7 -> 20        -0.24276
       9 -> 29        -0.18519
      10 -> 31        -0.18622
      12 -> 36         0.13466

 Excited State 102:      Singlet-A"    16.9759 eV   73.04 nm  f=0.0264  <S**2>=0.000
      12 -> 39         0.68994

 Excited State 103:      Singlet-A'    16.9919 eV   72.97 nm  f=0.0189  <S**2>=0.000
       5 -> 13         0.11032
       7 -> 20         0.47857
       8 -> 24        -0.10150
      10 -> 31        -0.29205
      11 -> 32         0.37618

 Excited State 104:      Singlet-A'    17.0338 eV   72.79 nm  f=0.0670  <S**2>=0.000
       7 -> 20        -0.15471
       8 -> 24        -0.11964
      10 -> 31         0.43128
      11 -> 32         0.40362
      12 -> 40        -0.30204

 Excited State 105:      Singlet-A"    17.0548 eV   72.70 nm  f=0.0212  <S**2>=0.000
       5 -> 15         0.19611
       6 -> 14        -0.13972
       7 -> 19         0.17196
       7 -> 21        -0.14127
       8 -> 22        -0.16260
      10 -> 30        -0.16714
      10 -> 32         0.27680
      11 -> 31         0.41699

 Excited State 106:      Singlet-A'    17.0655 eV   72.65 nm  f=0.0094  <S**2>=0.000
      10 -> 31         0.15373
      11 -> 32         0.26874
      12 -> 40         0.61105

 Excited State 107:      Singlet-A'    17.1260 eV   72.40 nm  f=0.0528  <S**2>=0.000
       8 -> 24         0.65596
      11 -> 32         0.17084

 Excited State 108:      Singlet-A"    17.3282 eV   71.55 nm  f=0.0000  <S**2>=0.000
       5 -> 15         0.10514
       6 -> 16         0.65982
       9 -> 30         0.16294

 Excited State 109:      Singlet-A"    17.3829 eV   71.33 nm  f=0.0008  <S**2>=0.000
       5 -> 15        -0.22015
       6 -> 16         0.12213
       9 -> 30         0.12541
      10 -> 32         0.60517
      11 -> 31        -0.10861

 Excited State 110:      Singlet-A"    17.4526 eV   71.04 nm  f=0.0002  <S**2>=0.000
       6 -> 16        -0.18455
       9 -> 30         0.66274

 The electronic state is 1-A'.
 Alpha  occ. eigenvalues --  -14.11128 -10.02799 -10.02783  -0.88920  -0.60248
 Alpha  occ. eigenvalues --   -0.56289  -0.48010  -0.42977  -0.33974  -0.31208
 Alpha  occ. eigenvalues --   -0.30075  -0.21514
 Alpha virt. eigenvalues --    0.01525   0.04206   0.04207   0.07131   0.09010
 Alpha virt. eigenvalues --    0.11262   0.13057   0.14360   0.17254   0.18034
 Alpha virt. eigenvalues --    0.18535   0.19606   0.21345   0.23676   0.24225

 Mulliken charges:
               1
     1  C    0.581230
     2  C    0.581230
     3  N   -0.399344
     4  H   -0.221561
     5  H   -0.146473
     6  H   -0.146473
     7  H   -0.221561
     8  H   -0.027048
 Sum of Mulliken charges =   0.00000

 Dipole moment (field-independent basis, Debye):
    X=             -1.2678    Y=             -1.0077    Z=              0.0000  Tot=              1.6195
 Quadrupole moment (field-independent basis, Debye-Ang):
   XX=            -17.9027   YY=            -21.2028   ZZ=            -18.7395
   XY=             -2.0950   XZ=              0.0000   YZ=              0.0000

 Normal termination of Gaussian 16 at Mon Mar 21 20:22:49 2022.
