 Gaussian 16, Revision C.01,
 Gaussian 16:  EM64L-G16RevC.01  3-Jul-2019

 ----------------------------------------------------------------------
 #P TD(Nstates=10000) tpsstpss/Gen SCF(maxcycles=100) Int(Grid=ultrafin
 e)
 ----------------------------------------------------------------------

 ---------------------
 xGDB7_00001_tier4.com
 ---------------------
 Symbolic Z-matrix:
 Charge =  0 Multiplicity = 1

                         Standard orientation:
 ---------------------------------------------------------------------
 Center     Atomic      Atomic             Coordinates (Angstroms)
 Number     Number       Type             X           Y           Z
 ---------------------------------------------------------------------
      1          6           0        0.000284   -0.018657   -1.236532
      2          6           0       -0.000055    0.003295    0.218717
      3          6           0       -0.000323    0.021367    1.415619
      4          1           0        0.273656    0.958689   -1.636635
      5          1           0       -0.987794   -0.279414   -1.618263
      6          1           0        0.715256   -0.752703   -1.610700
      7          1           0       -0.000556    0.037402    2.478776
 ---------------------------------------------------------------------

 SCF Done:  E(RTPSS-TPSS) =  -116.594980698     A.U. after   13 cycles

 Excitation energies and oscillator strengths:

 Excited State   1:      Singlet-A      6.9167 eV  179.25 nm  f=0.0055  <S**2>=0.000
      11 -> 12         0.70653
 This state for optimization and/or second-order correction.
 Total Energy, E(TD-HF/TD-DFT) =  -116.340795842
 Copying the excited state density for this state as the 1-particle RhoCI density.

 Excited State   2:      Singlet-A      6.9167 eV  179.25 nm  f=0.0055  <S**2>=0.000
      10 -> 12         0.70653

 Excited State   3:      Singlet-A      7.0549 eV  175.74 nm  f=0.0000  <S**2>=0.000
      10 -> 13        -0.31146
      10 -> 14         0.39094
      11 -> 13         0.39145
      11 -> 14         0.31132

 Excited State   4:      Singlet-A      7.0739 eV  175.27 nm  f=0.0010  <S**2>=0.000
      10 -> 13        -0.12768
      10 -> 14         0.48333
      11 -> 13        -0.48297
      11 -> 14        -0.12739

 Excited State   5:      Singlet-A      7.0739 eV  175.27 nm  f=0.0010  <S**2>=0.000
      10 -> 13         0.48306
      10 -> 14         0.12763
      11 -> 13        -0.12743
      11 -> 14         0.48323

 Excited State   6:      Singlet-A      7.9322 eV  156.31 nm  f=0.0355  <S**2>=0.000
      11 -> 15         0.70614

 Excited State   7:      Singlet-A      7.9322 eV  156.31 nm  f=0.0355  <S**2>=0.000
      10 -> 15         0.70614

 Excited State   8:      Singlet-A      8.6136 eV  143.94 nm  f=0.0401  <S**2>=0.000
      11 -> 16         0.70441

 Excited State   9:      Singlet-A      8.6136 eV  143.94 nm  f=0.0401  <S**2>=0.000
      10 -> 16         0.70441

 Excited State  10:      Singlet-A      9.0090 eV  137.62 nm  f=0.4553  <S**2>=0.000
      10 -> 13         0.26404
      10 -> 14         0.21019
      10 -> 17         0.32136
      10 -> 18        -0.16054
      11 -> 13         0.21019
      11 -> 14        -0.26404
      11 -> 17        -0.16055
      11 -> 18        -0.32136

 Excited State  11:      Singlet-A      9.4409 eV  131.33 nm  f=0.0032  <S**2>=0.000
      10 -> 17         0.36603
      10 -> 18        -0.33973
      11 -> 17         0.34044
      11 -> 18         0.36567

 Excited State  12:      Singlet-A      9.4409 eV  131.33 nm  f=0.0032  <S**2>=0.000
      10 -> 17        -0.33994
      10 -> 18        -0.36557
      11 -> 17         0.36613
      11 -> 18        -0.34023

 Excited State  13:      Singlet-A      9.4519 eV  131.17 nm  f=0.0000  <S**2>=0.000
      10 -> 17         0.22328
      10 -> 18         0.44758
      11 -> 17         0.44658
      11 -> 18        -0.22342

 Excited State  14:      Singlet-A     10.2079 eV  121.46 nm  f=0.0000  <S**2>=0.000
      10 -> 19         0.48065
      10 -> 20         0.13562
      11 -> 19         0.13564
      11 -> 20        -0.48063

 Excited State  15:      Singlet-A     10.2410 eV  121.07 nm  f=0.1495  <S**2>=0.000
      10 -> 13         0.13423
      10 -> 14         0.10687
      10 -> 17        -0.17948
      10 -> 19        -0.11018
      10 -> 20         0.39030
      11 -> 13         0.10687
      11 -> 14        -0.13423
      11 -> 18         0.17949
      11 -> 19         0.39028
      11 -> 20         0.11009

 Excited State  16:      Singlet-A     10.3047 eV  120.32 nm  f=0.0002  <S**2>=0.000
      10 -> 20        -0.48327
      10 -> 21        -0.15815
      11 -> 19         0.48336

 Excited State  17:      Singlet-A     10.3048 eV  120.32 nm  f=0.0002  <S**2>=0.000
      10 -> 19         0.48329
      11 -> 20         0.48333
      11 -> 21        -0.15818

 Excited State  18:      Singlet-A     10.3637 eV  119.63 nm  f=0.5946  <S**2>=0.000
       8 -> 14         0.12274
       9 -> 13         0.12276
      10 -> 13        -0.19834
      10 -> 14        -0.15789
      10 -> 17         0.23434
      10 -> 18        -0.11708
      10 -> 20         0.27390
      11 -> 13        -0.15789
      11 -> 14         0.19834
      11 -> 17        -0.11707
      11 -> 18        -0.23435
      11 -> 19         0.27380

 Excited State  19:      Singlet-A     10.4476 eV  118.67 nm  f=0.0276  <S**2>=0.000
      10 -> 19         0.11303
      11 -> 20         0.11304
      11 -> 21         0.67872

 Excited State  20:      Singlet-A     10.4477 eV  118.67 nm  f=0.0276  <S**2>=0.000
      10 -> 20        -0.11305
      10 -> 21         0.67872
      11 -> 19         0.11298

 Excited State  21:      Singlet-A     11.2388 eV  110.32 nm  f=0.1006  <S**2>=0.000
       9 -> 12         0.69920

 Excited State  22:      Singlet-A     11.2389 eV  110.32 nm  f=0.1006  <S**2>=0.000
       8 -> 12         0.69920

 Excited State  23:      Singlet-A     11.2797 eV  109.92 nm  f=0.0000  <S**2>=0.000
       8 -> 13        -0.42318
       8 -> 14         0.26597
       9 -> 13         0.26615
       9 -> 14         0.42340

 Excited State  24:      Singlet-A     11.4057 eV  108.70 nm  f=0.0220  <S**2>=0.000
       7 -> 13        -0.13672
       8 -> 13        -0.21490
       8 -> 14        -0.43190
       9 -> 13         0.43192
       9 -> 14        -0.21501

 Excited State  25:      Singlet-A     11.4057 eV  108.70 nm  f=0.0220  <S**2>=0.000
       7 -> 14         0.13672
       8 -> 13         0.43203
       8 -> 14        -0.21504
       9 -> 13         0.21488
       9 -> 14         0.43176

 Excited State  26:      Singlet-A     11.5207 eV  107.62 nm  f=0.0042  <S**2>=0.000
      10 -> 23        -0.49619
      11 -> 22         0.49626

 Excited State  27:      Singlet-A     11.5207 eV  107.62 nm  f=0.0042  <S**2>=0.000
      10 -> 22         0.49623
      11 -> 23         0.49623

 Excited State  28:      Singlet-A     11.6157 eV  106.74 nm  f=0.0000  <S**2>=0.000
      10 -> 22         0.16419
      10 -> 23         0.47204
      11 -> 22         0.47196
      11 -> 23        -0.16418

 Excited State  29:      Singlet-A     11.6746 eV  106.20 nm  f=0.0349  <S**2>=0.000
       7 -> 12         0.69667

 Excited State  30:      Singlet-A     11.7224 eV  105.77 nm  f=0.0016  <S**2>=0.000
       7 -> 14         0.46418
      10 -> 24        -0.39317
      11 -> 24         0.32608

 Excited State  31:      Singlet-A     11.7224 eV  105.77 nm  f=0.0016  <S**2>=0.000
       7 -> 13         0.46418
      10 -> 24        -0.32607
      11 -> 24        -0.39319

 Excited State  32:      Singlet-A     12.0282 eV  103.08 nm  f=0.0217  <S**2>=0.000
       8 -> 13         0.22448
       8 -> 14         0.35712
       9 -> 13         0.35704
       9 -> 14        -0.22444
      10 -> 22         0.12045
      10 -> 25         0.10384
      11 -> 23        -0.12046
      11 -> 26        -0.10383

 Excited State  33:      Singlet-A     12.1675 eV  101.90 nm  f=0.0209  <S**2>=0.000
       7 -> 13         0.38394
       7 -> 14        -0.24413
       9 -> 15        -0.26563
      10 -> 24         0.14557
      11 -> 24         0.42203

 Excited State  34:      Singlet-A     12.1675 eV  101.90 nm  f=0.0209  <S**2>=0.000
       7 -> 13         0.24455
       7 -> 14         0.38465
       8 -> 15        -0.26273
      10 -> 24         0.42278
      11 -> 24        -0.14584

 Excited State  35:      Singlet-A     12.1759 eV  101.83 nm  f=0.0020  <S**2>=0.000
       7 -> 13         0.16014
       7 -> 14        -0.10173
       9 -> 15         0.65480
      11 -> 24         0.16836

 Excited State  36:      Singlet-A     12.1760 eV  101.83 nm  f=0.0020  <S**2>=0.000
       7 -> 13         0.10069
       7 -> 14         0.15841
       8 -> 15         0.65597
      10 -> 24         0.16651

 Excited State  37:      Singlet-A     12.4184 eV   99.84 nm  f=0.1699  <S**2>=0.000
       7 -> 15         0.37443
       8 -> 14         0.10949
       9 -> 13         0.10949
      10 -> 22        -0.35098
      10 -> 23         0.12209
      11 -> 22         0.12209
      11 -> 23         0.35098

 Excited State  38:      Singlet-A     12.7839 eV   96.98 nm  f=0.0084  <S**2>=0.000
       7 -> 15         0.58756
      10 -> 22         0.20003
      11 -> 23        -0.20003

 Excited State  39:      Singlet-A     12.8248 eV   96.68 nm  f=0.0014  <S**2>=0.000
       9 -> 16         0.70375

 Excited State  40:      Singlet-A     12.8249 eV   96.67 nm  f=0.0014  <S**2>=0.000
       8 -> 16         0.70375

 Excited State  41:      Singlet-A     13.2151 eV   93.82 nm  f=0.0000  <S**2>=0.000
      10 -> 25         0.19016
      10 -> 26         0.44517
      10 -> 27         0.10620
      11 -> 25         0.44519
      11 -> 26        -0.19014
      11 -> 28        -0.10622

 Excited State  42:      Singlet-A     13.2655 eV   93.46 nm  f=0.0237  <S**2>=0.000
       7 -> 16         0.11073
      10 -> 25        -0.39889
      10 -> 26         0.17035
      10 -> 27        -0.10443
      10 -> 28         0.19219
      11 -> 25         0.17041
      11 -> 26         0.39890
      11 -> 27         0.19218
      11 -> 28         0.10444

 Excited State  43:      Singlet-A     13.3770 eV   92.68 nm  f=0.1815  <S**2>=0.000
       7 -> 16         0.68718

 Excited State  44:      Singlet-A     13.5349 eV   91.60 nm  f=0.0048  <S**2>=0.000
       6 -> 12         0.69077

 Excited State  45:      Singlet-A     13.5571 eV   91.45 nm  f=0.0397  <S**2>=0.000
       6 -> 13        -0.34628
       8 -> 17         0.10129
       9 -> 18         0.10119
      10 -> 25         0.41380
      11 -> 26         0.41382

 Excited State  46:      Singlet-A     13.5571 eV   91.45 nm  f=0.0397  <S**2>=0.000
       6 -> 14         0.34627
       8 -> 18         0.10120
       9 -> 17        -0.10129
      10 -> 26         0.41382
      11 -> 25        -0.41380

 Excited State  47:      Singlet-A     13.6817 eV   90.62 nm  f=0.0000  <S**2>=0.000
       8 -> 18         0.49404
       9 -> 17         0.49678

 Excited State  48:      Singlet-A     13.7025 eV   90.48 nm  f=0.0630  <S**2>=0.000
       6 -> 14        -0.10858
       8 -> 18         0.47924
       9 -> 17        -0.47642

 Excited State  49:      Singlet-A     13.7025 eV   90.48 nm  f=0.0630  <S**2>=0.000
       6 -> 13         0.10858
       8 -> 17         0.47785
       9 -> 18         0.47782

 Excited State  50:      Singlet-A     13.7867 eV   89.93 nm  f=0.0047  <S**2>=0.000
       6 -> 13        -0.18613
       6 -> 14         0.21895
      10 -> 27         0.42681
      10 -> 28         0.14366
      11 -> 27        -0.14372
      11 -> 28         0.42706

 Excited State  51:      Singlet-A     13.7867 eV   89.93 nm  f=0.0047  <S**2>=0.000
       6 -> 13        -0.21893
       6 -> 14        -0.18612
      10 -> 27         0.14367
      10 -> 28        -0.42664
      11 -> 27         0.42688
      11 -> 28         0.14362

 Excited State  52:      Singlet-A     13.8501 eV   89.52 nm  f=0.0000  <S**2>=0.000
      10 -> 26        -0.11162
      10 -> 27         0.42618
      10 -> 28         0.23161
      11 -> 25        -0.11164
      11 -> 27         0.23148
      11 -> 28        -0.42609

 Excited State  53:      Singlet-A     13.9068 eV   89.15 nm  f=0.0064  <S**2>=0.000
      10 -> 29         0.60434
      11 -> 29        -0.32982

 Excited State  54:      Singlet-A     13.9068 eV   89.15 nm  f=0.0064  <S**2>=0.000
      10 -> 29         0.32968
      11 -> 29         0.60473

 Excited State  55:      Singlet-A     14.1306 eV   87.74 nm  f=0.0090  <S**2>=0.000
       7 -> 17         0.70039

 Excited State  56:      Singlet-A     14.1306 eV   87.74 nm  f=0.0090  <S**2>=0.000
       7 -> 18         0.70038

 Excited State  57:      Singlet-A     14.3470 eV   86.42 nm  f=0.0270  <S**2>=0.000
       8 -> 17         0.32960
       8 -> 19        -0.20191
       8 -> 20         0.28742
       9 -> 18        -0.32959
       9 -> 19         0.28760
       9 -> 20         0.20203

 Excited State  58:      Singlet-A     14.3738 eV   86.26 nm  f=0.0000  <S**2>=0.000
       8 -> 19        -0.40827
       8 -> 20        -0.28680
       9 -> 19        -0.28696
       9 -> 20         0.40849

 Excited State  59:      Singlet-A     14.3975 eV   86.12 nm  f=0.1426  <S**2>=0.000
       6 -> 15         0.31856
       7 -> 21        -0.12519
       8 -> 20         0.11510
       9 -> 19         0.11524
      10 -> 25        -0.12887
      10 -> 27         0.16157
      10 -> 28        -0.29738
      10 -> 31         0.10089
      11 -> 26         0.12879
      11 -> 27        -0.29742
      11 -> 28        -0.16162
      11 -> 30         0.10093

 Excited State  60:      Singlet-A     14.4413 eV   85.85 nm  f=0.1140  <S**2>=0.000
       6 -> 13         0.41742
       6 -> 14        -0.11463
       8 -> 19        -0.16983
       8 -> 20         0.18703
       9 -> 19        -0.18683
       9 -> 20        -0.16961
      10 -> 25         0.18329
      10 -> 27         0.14603
      11 -> 26         0.18336
      11 -> 28         0.14625

 Excited State  61:      Singlet-A     14.4413 eV   85.85 nm  f=0.1140  <S**2>=0.000
       6 -> 13         0.11464
       6 -> 14         0.41743
       8 -> 19         0.18706
       8 -> 20         0.16985
       9 -> 19        -0.16956
       9 -> 20         0.18680
      10 -> 26        -0.18334
      10 -> 28        -0.14580
      11 -> 25         0.18330
      11 -> 27         0.14603

 Excited State  62:      Singlet-A     14.6525 eV   84.62 nm  f=0.0122  <S**2>=0.000
       8 -> 19         0.14657
       9 -> 20         0.14660
       9 -> 21         0.64959

 Excited State  63:      Singlet-A     14.6526 eV   84.62 nm  f=0.0122  <S**2>=0.000
       8 -> 20        -0.14642
       8 -> 21         0.64966
       9 -> 19         0.14649

 Excited State  64:      Singlet-A     14.7123 eV   84.27 nm  f=0.0097  <S**2>=0.000
       6 -> 15         0.41626
       6 -> 16         0.17766
       8 -> 17         0.22359
       8 -> 19         0.14517
       8 -> 20        -0.20666
       9 -> 18        -0.22356
       9 -> 19        -0.20669
       9 -> 20        -0.14521
      10 -> 31        -0.10429
      11 -> 30        -0.10432

 Excited State  65:      Singlet-A     14.8572 eV   83.45 nm  f=0.0522  <S**2>=0.000
       6 -> 15         0.36169
       7 -> 24        -0.13063
       8 -> 17        -0.19352
       8 -> 19        -0.11027
       8 -> 20         0.15698
       9 -> 18         0.19352
       9 -> 19         0.15692
       9 -> 20         0.11024
      10 -> 28         0.13742
      10 -> 30        -0.11959
      10 -> 31        -0.19909
      11 -> 27         0.13741
      11 -> 30        -0.19912
      11 -> 31         0.11956

 Excited State  66:      Singlet-A     14.9672 eV   82.84 nm  f=0.0121  <S**2>=0.000
       7 -> 19         0.59435
       7 -> 20         0.37824

 Excited State  67:      Singlet-A     14.9672 eV   82.84 nm  f=0.0121  <S**2>=0.000
       7 -> 19        -0.37825
       7 -> 20         0.59436

 Excited State  68:      Singlet-A     15.1094 eV   82.06 nm  f=0.3541  <S**2>=0.000
       6 -> 13        -0.16813
       8 -> 19        -0.11735
       8 -> 20         0.26352
       8 -> 21         0.11523
       9 -> 19        -0.26342
       9 -> 20        -0.11732
       9 -> 21         0.16456
      10 -> 31         0.21616
      10 -> 32        -0.23285
      10 -> 34        -0.11621
      11 -> 30        -0.21618
      11 -> 32        -0.16697

 Excited State  69:      Singlet-A     15.1094 eV   82.06 nm  f=0.3542  <S**2>=0.000
       6 -> 14        -0.16813
       8 -> 19         0.26349
       8 -> 20         0.11743
       8 -> 21         0.16450
       9 -> 19        -0.11739
       9 -> 20         0.26341
       9 -> 21        -0.11534
      10 -> 30         0.21604
      10 -> 32        -0.16711
      11 -> 31         0.21609
      11 -> 32         0.23288
      11 -> 34         0.11621

 Excited State  70:      Singlet-A     15.1924 eV   81.61 nm  f=0.0130  <S**2>=0.000
       6 -> 16         0.49263
       7 -> 21         0.47291

 Excited State  71:      Singlet-A     15.2460 eV   81.32 nm  f=0.0123  <S**2>=0.000
       8 -> 19        -0.11025
       8 -> 20        -0.10146
       8 -> 21        -0.10389
       9 -> 19         0.10144
       9 -> 20        -0.11023
      10 -> 30         0.42199
      10 -> 31         0.11418
      10 -> 32         0.16960
      11 -> 30        -0.11490
      11 -> 31         0.42083
      11 -> 32        -0.12208

 Excited State  72:      Singlet-A     15.2460 eV   81.32 nm  f=0.0123  <S**2>=0.000
       8 -> 19        -0.10148
       8 -> 20         0.11028
       9 -> 19        -0.11025
       9 -> 20        -0.10144
       9 -> 21         0.10398
      10 -> 30         0.11424
      10 -> 31        -0.42120
      10 -> 32        -0.12218
      11 -> 30         0.42147
      11 -> 31         0.11476
      11 -> 32        -0.16981

 Excited State  73:      Singlet-A     15.2673 eV   81.21 nm  f=0.0000  <S**2>=0.000
      10 -> 30        -0.42798
      10 -> 31         0.25771
      11 -> 30         0.25692
      11 -> 31         0.42894

 Excited State  74:      Singlet-A     15.3934 eV   80.54 nm  f=0.2845  <S**2>=0.000
       6 -> 13        -0.10249
       6 -> 18         0.10199
       8 -> 19        -0.12977
       9 -> 20        -0.12975
       9 -> 21         0.11154
      10 -> 32         0.17295
      11 -> 32         0.57174
      11 -> 34        -0.11602

 Excited State  75:      Singlet-A     15.3935 eV   80.54 nm  f=0.2845  <S**2>=0.000
       6 -> 14        -0.10248
       6 -> 17        -0.10199
       8 -> 20         0.12979
       8 -> 21         0.11148
       9 -> 19        -0.12978
      10 -> 32         0.57176
      10 -> 34        -0.11601
      11 -> 32        -0.17296

 Excited State  76:      Singlet-A     15.6820 eV   79.06 nm  f=0.0028  <S**2>=0.000
       6 -> 15        -0.20811
       6 -> 16         0.31844
       7 -> 21        -0.23002
       7 -> 24         0.11344
       8 -> 22        -0.19946
       9 -> 23         0.19961
      10 -> 30        -0.14215
      10 -> 31        -0.23672
      11 -> 30        -0.23670
      11 -> 31         0.14216

 Excited State  77:      Singlet-A     15.7432 eV   78.75 nm  f=0.0056  <S**2>=0.000
      11 -> 33         0.70090

 Excited State  78:      Singlet-A     15.7433 eV   78.75 nm  f=0.0056  <S**2>=0.000
      10 -> 33         0.70090

 Excited State  79:      Singlet-A     15.7778 eV   78.58 nm  f=0.0200  <S**2>=0.000
       6 -> 16        -0.30450
       7 -> 21         0.35917
       8 -> 22        -0.25792
       9 -> 23         0.25850
      10 -> 31        -0.11725
      11 -> 30        -0.11724

 Excited State  80:      Singlet-A     15.8216 eV   78.36 nm  f=0.0071  <S**2>=0.000
       8 -> 22        -0.34330
       8 -> 23        -0.34314
       9 -> 22         0.34437
       9 -> 23        -0.34310
      11 -> 34        -0.13347

 Excited State  81:      Singlet-A     15.8216 eV   78.36 nm  f=0.0071  <S**2>=0.000
       8 -> 22         0.34385
       8 -> 23        -0.34261
       9 -> 22         0.34379
       9 -> 23         0.34364
      10 -> 34         0.13348

 Excited State  82:      Singlet-A     15.8548 eV   78.20 nm  f=0.0000  <S**2>=0.000
       8 -> 23         0.50074
       9 -> 22         0.49911

 Excited State  83:      Singlet-A     15.9655 eV   77.66 nm  f=0.0422  <S**2>=0.000
       6 -> 17         0.25092
       6 -> 18         0.23268
      10 -> 34        -0.20584
      11 -> 34         0.54729

 Excited State  84:      Singlet-A     15.9655 eV   77.66 nm  f=0.0422  <S**2>=0.000
       6 -> 17        -0.23271
       6 -> 18         0.25091
      10 -> 34         0.54728
      11 -> 34         0.20584

 Excited State  85:      Singlet-A     16.0835 eV   77.09 nm  f=0.0097  <S**2>=0.000
       7 -> 23        -0.12581
       9 -> 24         0.67188

 Excited State  86:      Singlet-A     16.0835 eV   77.09 nm  f=0.0097  <S**2>=0.000
       7 -> 22         0.12583
       8 -> 24         0.67185

 Excited State  87:      Singlet-A     16.1001 eV   77.01 nm  f=0.0345  <S**2>=0.000
       6 -> 15        -0.12071
       7 -> 21         0.15085
       8 -> 22         0.37068
       9 -> 23        -0.37065
      10 -> 30        -0.11260
      10 -> 31        -0.18755
      11 -> 30        -0.18746
      11 -> 31         0.11261

 Excited State  88:      Singlet-A     16.1567 eV   76.74 nm  f=0.0536  <S**2>=0.000
       6 -> 17         0.50775
       7 -> 22         0.32406
      10 -> 34         0.18540
      10 -> 35        -0.19847
      11 -> 34        -0.12007
      11 -> 35         0.12859

 Excited State  89:      Singlet-A     16.1567 eV   76.74 nm  f=0.0536  <S**2>=0.000
       6 -> 18         0.50768
       7 -> 23         0.32401
      10 -> 34        -0.12006
      10 -> 35         0.12867
      11 -> 34        -0.18536
      11 -> 35         0.19873

 Excited State  90:      Singlet-A     16.1778 eV   76.64 nm  f=0.0244  <S**2>=0.000
       6 -> 18        -0.18024
       7 -> 23        -0.13090
      11 -> 35         0.63289
      11 -> 36        -0.14610

 Excited State  91:      Singlet-A     16.1778 eV   76.64 nm  f=0.0244  <S**2>=0.000

 The electronic state is 1-A.
 Alpha  occ. eigenvalues --  -10.02718  -9.99888  -9.98777  -0.71805  -0.64213
 Alpha  occ. eigenvalues --   -0.48226  -0.41254  -0.39592  -0.39591  -0.24034
 Alpha  occ. eigenvalues --   -0.24034
 Alpha virt. eigenvalues --    0.01380   0.01898   0.01898   0.05127   0.07507
 Alpha virt. eigenvalues --    0.10737   0.10737   0.13774   0.13774   0.14318
 Alpha virt. eigenvalues --    0.18688   0.18688   0.19137   0.25743   0.25743

 Mulliken charges:
               1
     1  C    0.460941
     2  C    0.812266
     3  C   -1.102832
     4  H   -0.038269
     5  H   -0.038277
     6  H   -0.038281
     7  H   -0.055548
 Sum of Mulliken charges =  -0.00000

 Dipole moment (field-independent basis, Debye):
    X=              0.0002    Y=             -0.0117    Z=             -0.7776  Tot=              0.7777
 Quadrupole moment (field-independent basis, Debye-Ang):
   XX=            -19.4843   YY=            -19.4830   ZZ=            -14.4085
   XY=             -0.0000   XZ=             -0.0011   YZ=              0.0766

 Normal termination of Gaussian 16 at Mon Mar 21 20:15:38 2022.
