 Gaussian 16, Revision C.01,
 Gaussian 16:  EM64L-G16RevC.01  3-Jul-2019

 ----------------------------------------------------------------------
 #P TD(Nstates=10000) tpsstpss/Gen SCF(maxcycles=100) Int(Grid=ultrafin
 e)
 ----------------------------------------------------------------------

 ---------------------
 xGDB7_00001_tier4.com
 ---------------------
 Symbolic Z-matrix:
 Charge =  0 Multiplicity = 1

                         Standard orientation:
 ---------------------------------------------------------------------
 Center     Atomic      Atomic             Coordinates (Angstroms)
 Number     Number       Type             X           Y           Z
 ---------------------------------------------------------------------
      1          6           0        0.000000    0.000000    0.761397
      2          6           0       -0.000000   -0.000000   -0.761397
      3          1           0        0.000000    1.017110    1.157248
      4          1           0        0.880843   -0.508555    1.157248
      5          1           0       -0.880843   -0.508555    1.157248
      6          1           0        0.880843    0.508555   -1.157248
      7          1           0       -0.880843    0.508555   -1.157248
      8          1           0       -0.000000   -1.017110   -1.157248
 ---------------------------------------------------------------------

 SCF Done:  E(RTPSS-TPSS) =  -79.7892674053     A.U. after    9 cycles

 Excitation energies and oscillator strengths:

 Excited State   1:      Singlet-EG     8.8386 eV  140.28 nm  f=0.0000  <S**2>=0.000
       9 -> 10         0.70694
 This state for optimization and/or second-order correction.
 Total Energy, E(TD-HF/TD-DFT) =  -79.4644530631
 Copying the excited state density for this state as the 1-particle RhoCI density.

 Excited State   2:      Singlet-EG     8.8386 eV  140.28 nm  f=0.0000  <S**2>=0.000
       8 -> 10         0.70694

 Excited State   3:      Singlet-A1G    9.5685 eV  129.58 nm  f=0.0000  <S**2>=0.000
       7 -> 10         0.70313

 Excited State   4:      Singlet-EU     9.6958 eV  127.87 nm  f=0.0706  <S**2>=0.000
       9 -> 11         0.70603

 Excited State   5:      Singlet-EU     9.6958 eV  127.87 nm  f=0.0706  <S**2>=0.000
       8 -> 11         0.70603

 Excited State   6:      Singlet-A2U   10.3473 eV  119.82 nm  f=0.1725  <S**2>=0.000
       7 -> 11         0.70152

 Excited State   7:      Singlet-EG    10.7368 eV  115.48 nm  f=0.0465  <S**2>=0.000
       8 -> 13        -0.49717
       9 -> 12         0.49717

 Excited State   8:      Singlet-EG    10.7368 eV  115.48 nm  f=0.0465  <S**2>=0.000
       8 -> 12         0.49715
       9 -> 13         0.49719

 Excited State   9:      Singlet-EG    10.7421 eV  115.42 nm  f=0.0000  <S**2>=0.000
       8 -> 12         0.50001
       9 -> 13        -0.49997

 Excited State  10:      Singlet-EG    11.0318 eV  112.39 nm  f=0.2847  <S**2>=0.000
       8 -> 13         0.49145
       9 -> 12         0.49145

 Excited State  11:      Singlet-EU    11.2445 eV  110.26 nm  f=0.0000  <S**2>=0.000
       8 -> 14        -0.49940
       9 -> 15         0.49941

 Excited State  12:      Singlet-EU    11.2823 eV  109.89 nm  f=0.0952  <S**2>=0.000
       5 -> 10         0.67818
       7 -> 12         0.18967

 Excited State  13:      Singlet-EU    11.2823 eV  109.89 nm  f=0.0952  <S**2>=0.000
       6 -> 10         0.67818
       7 -> 13         0.18967

 Excited State  14:      Singlet-EU    11.4295 eV  108.48 nm  f=0.0000  <S**2>=0.000
       8 -> 15         0.48697
       9 -> 14         0.48690

 Excited State  15:      Singlet-EU    11.4362 eV  108.41 nm  f=0.0000  <S**2>=0.000
       8 -> 15        -0.49747
       9 -> 14         0.49754

 Excited State  16:      Singlet-EU    11.4362 eV  108.41 nm  f=0.0000  <S**2>=0.000
       8 -> 14         0.49751
       9 -> 15         0.49750

 Excited State  17:      Singlet-EU    11.4508 eV  108.28 nm  f=0.1026  <S**2>=0.000
       5 -> 10        -0.18482
       7 -> 12         0.67664

 Excited State  18:      Singlet-EU    11.4508 eV  108.28 nm  f=0.1026  <S**2>=0.000
       6 -> 10        -0.18483
       7 -> 13         0.67663

 Excited State  19:      Singlet-EG    11.9304 eV  103.92 nm  f=0.0000  <S**2>=0.000
       7 -> 14         0.70298

 Excited State  20:      Singlet-EG    11.9304 eV  103.92 nm  f=0.0000  <S**2>=0.000
       7 -> 15         0.70298

 Excited State  21:      Singlet-EG    12.0790 eV  102.64 nm  f=0.0000  <S**2>=0.000
       5 -> 11         0.70504

 Excited State  22:      Singlet-EG    12.0790 eV  102.64 nm  f=0.0000  <S**2>=0.000
       6 -> 11         0.70504

 Excited State  23:      Singlet-EG    12.2655 eV  101.08 nm  f=0.0000  <S**2>=0.000
       8 -> 16         0.70230

 Excited State  24:      Singlet-EG    12.2655 eV  101.08 nm  f=0.0000  <S**2>=0.000
       9 -> 16         0.70230

 Excited State  25:      Singlet-EU    12.5316 eV   98.94 nm  f=0.0000  <S**2>=0.000
       8 -> 17        -0.49941
       9 -> 18         0.49942

 Excited State  26:      Singlet-EU    12.5493 eV   98.80 nm  f=0.0000  <S**2>=0.000
       8 -> 18         0.49575
       9 -> 17        -0.49575

 Excited State  27:      Singlet-EU    12.5493 eV   98.80 nm  f=0.0000  <S**2>=0.000
       8 -> 17         0.49575
       9 -> 18         0.49575

 Excited State  28:      Singlet-EU    12.7172 eV   97.49 nm  f=0.0000  <S**2>=0.000
       5 -> 12        -0.17731
       6 -> 13        -0.17731
       7 -> 16         0.16657
       8 -> 18         0.44976
       9 -> 17         0.44976

 Excited State  29:      Singlet-A1G   12.9968 eV   95.40 nm  f=0.0000  <S**2>=0.000
       5 -> 12         0.23719
       6 -> 13         0.23719
       7 -> 16         0.62005

 Excited State  30:      Singlet-EG    13.1072 eV   94.59 nm  f=0.0000  <S**2>=0.000
       8 -> 19        -0.49717
       9 -> 20         0.49717

 Excited State  31:      Singlet-EU    13.1319 eV   94.41 nm  f=0.0000  <S**2>=0.000
       5 -> 13         0.50009
       6 -> 12        -0.49989

 Excited State  32:      Singlet-EU    13.1327 eV   94.41 nm  f=0.0000  <S**2>=0.000
       5 -> 13         0.44564
       6 -> 12         0.44582
       7 -> 17         0.31547

 Excited State  33:      Singlet-EU    13.1327 eV   94.41 nm  f=0.0000  <S**2>=0.000
       5 -> 12         0.44573
       6 -> 13        -0.44573
       7 -> 18         0.31547

 Excited State  34:      Singlet-EG    13.1816 eV   94.06 nm  f=0.0000  <S**2>=0.000
       5 -> 12        -0.22155
       6 -> 13         0.22155
       7 -> 18         0.63169

 Excited State  35:      Singlet-EG    13.1816 eV   94.06 nm  f=0.0000  <S**2>=0.000
       5 -> 13        -0.22151
       6 -> 12        -0.22160
       7 -> 17         0.63169

 Excited State  36:      Singlet-EU    13.2162 eV   93.81 nm  f=0.0086  <S**2>=0.000
       8 -> 20        -0.23403
       8 -> 21         0.61882
       9 -> 19         0.23402

 Excited State  37:      Singlet-EU    13.2162 eV   93.81 nm  f=0.0086  <S**2>=0.000
       8 -> 19         0.23402
       9 -> 20         0.23402
       9 -> 21         0.61882

 Excited State  38:      Singlet-EG    13.3809 eV   92.66 nm  f=0.0413  <S**2>=0.000
       5 -> 14        -0.20141
       6 -> 15         0.20141
       7 -> 20        -0.22091
       8 -> 20         0.38439
       8 -> 21         0.25723
       9 -> 19        -0.38439

 Excited State  39:      Singlet-EG    13.3809 eV   92.66 nm  f=0.0413  <S**2>=0.000
       5 -> 15         0.20141
       6 -> 14         0.20141
       7 -> 19         0.22091
       8 -> 19         0.38439
       9 -> 20         0.38439
       9 -> 21        -0.25723

 Excited State  40:      Singlet-EG    13.4784 eV   91.99 nm  f=0.0869  <S**2>=0.000
       7 -> 21         0.27394
       8 -> 20         0.44901
       9 -> 19         0.44901

 Excited State  41:      Singlet-EG    13.6529 eV   90.81 nm  f=0.0000  <S**2>=0.000
       5 -> 15        -0.49739
       6 -> 14         0.49739

 Excited State  42:      Singlet-EG    13.7278 eV   90.32 nm  f=0.0687  <S**2>=0.000
       5 -> 14         0.45725
       6 -> 15         0.45725
       7 -> 21         0.19137
       8 -> 20        -0.12437
       9 -> 19        -0.12437

 Excited State  43:      Singlet-EU    13.8234 eV   89.69 nm  f=0.0603  <S**2>=0.000
       5 -> 15        -0.29150
       6 -> 14        -0.29150
       7 -> 19         0.57085

 Excited State  44:      Singlet-EU    13.8234 eV   89.69 nm  f=0.0603  <S**2>=0.000
       5 -> 14        -0.29150
       6 -> 15         0.29150
       7 -> 20         0.57085

 Excited State  45:      Singlet-EG    14.1701 eV   87.50 nm  f=0.2395  <S**2>=0.000
       5 -> 15         0.30984
       5 -> 16         0.23871
       5 -> 18         0.11610
       6 -> 14         0.30984
       6 -> 17         0.11609
       7 -> 19         0.30143
       8 -> 19        -0.15593
       8 -> 23         0.14028
       9 -> 20        -0.15593
       9 -> 21         0.16269
       9 -> 22         0.14028

 Excited State  46:      Singlet-EG    14.1701 eV   87.50 nm  f=0.2395  <S**2>=0.000
       5 -> 14         0.30984
       5 -> 17         0.11609
       6 -> 15        -0.30984
       6 -> 16         0.23871
       6 -> 18        -0.11610
       7 -> 20         0.30143
       8 -> 20         0.15593
       8 -> 21         0.16269
       8 -> 22        -0.14027
       9 -> 19        -0.15593
       9 -> 23         0.14028

 Excited State  47:      Singlet-A2U   14.2918 eV   86.75 nm  f=0.0777  <S**2>=0.000
       4 -> 10        -0.10015
       5 -> 14        -0.15320
       5 -> 17         0.10014
       6 -> 15        -0.15320
       6 -> 18         0.10013
       7 -> 21         0.50807
       8 -> 20        -0.10572
       8 -> 22        -0.25740
       9 -> 19        -0.10572
       9 -> 23        -0.25740

 Excited State  48:      Singlet-EU    14.3746 eV   86.25 nm  f=0.0000  <S**2>=0.000
       4 -> 11         0.15077
       5 -> 12         0.37378
       6 -> 13         0.37378
       7 -> 16        -0.27202
       8 -> 18         0.18403
       9 -> 17         0.18403

 Excited State  49:      Singlet-EU    14.6717 eV   84.51 nm  f=0.0129  <S**2>=0.000
       5 -> 16         0.46977
       8 -> 23        -0.37015
       9 -> 22        -0.37015

 Excited State  50:      Singlet-EU    14.6717 eV   84.51 nm  f=0.0129  <S**2>=0.000
       6 -> 16         0.46977
       8 -> 22         0.37015
       9 -> 23        -0.37015

 Excited State  51:      Singlet-EG    14.6856 eV   84.43 nm  f=0.0000  <S**2>=0.000
       8 -> 23         0.49816
       9 -> 22        -0.49816

 Excited State  52:      Singlet-EU    14.7970 eV   83.79 nm  f=0.1601  <S**2>=0.000
       5 -> 17        -0.26114
       6 -> 16         0.39457
       6 -> 18         0.26114
       7 -> 22        -0.12699
       8 -> 22        -0.28359
       9 -> 23         0.28359

 Excited State  53:      Singlet-EU    14.7970 eV   83.79 nm  f=0.1601  <S**2>=0.000
       5 -> 16         0.39457
       5 -> 18        -0.26114
       6 -> 17        -0.26114
       7 -> 23        -0.12699
       8 -> 23         0.28359
       9 -> 22         0.28359

 Excited State  54:      Singlet-EG    14.9362 eV   83.01 nm  f=0.0000  <S**2>=0.000
       5 -> 18        -0.49840
       6 -> 17         0.49840

 Excited State  55:      Singlet-EG    14.9978 eV   82.67 nm  f=0.7691  <S**2>=0.000
       4 -> 10        -0.12604
       5 -> 17         0.19003
       6 -> 18         0.19003
       7 -> 21         0.23965
       7 -> 24        -0.11139
       8 -> 22         0.39730
       9 -> 23         0.39730

 Excited State  56:      Singlet-EG    15.0785 eV   82.23 nm  f=0.1369  <S**2>=0.000
       5 -> 16         0.18948
       5 -> 18         0.38575
       6 -> 17         0.38575
       7 -> 19        -0.10943
       7 -> 23        -0.31680

 Excited State  57:      Singlet-EG    15.0785 eV   82.23 nm  f=0.1369  <S**2>=0.000
       5 -> 17         0.38575
       6 -> 16         0.18948
       6 -> 18        -0.38574
       7 -> 20        -0.10943
       7 -> 22        -0.31680

 Excited State  58:      Singlet-EG    15.1588 eV   81.79 nm  f=0.0040  <S**2>=0.000
       4 -> 10         0.21905
       5 -> 17         0.43419
       6 -> 18         0.43419
       7 -> 21        -0.14322
       7 -> 24         0.12302

 Excited State  59:      Singlet-EU    15.5026 eV   79.98 nm  f=0.3569  <S**2>=0.000
       5 -> 16         0.15024
       5 -> 18         0.12253
       6 -> 17         0.12253
       7 -> 23         0.60763

 Excited State  60:      Singlet-EU    15.5026 eV   79.98 nm  f=0.3569  <S**2>=0.000
       5 -> 17         0.12253
       6 -> 16         0.15024
       6 -> 18        -0.12253
       7 -> 22         0.60763

 Excited State  61:      Singlet-EU    15.5065 eV   79.96 nm  f=0.0000  <S**2>=0.000
       5 -> 20        -0.49946
       6 -> 19         0.49946

 Excited State  62:      Singlet-EG    15.6233 eV   79.36 nm  f=0.0000  <S**2>=0.000
       5 -> 19         0.22651
       6 -> 20        -0.22651
       6 -> 21         0.62954

 Excited State  63:      Singlet-EG    15.6233 eV   79.36 nm  f=0.0000  <S**2>=0.000
       5 -> 20         0.22651
       5 -> 21         0.62954
       6 -> 19         0.22651

 Excited State  64:      Singlet-EU    15.8004 eV   78.47 nm  f=0.0000  <S**2>=0.000
       5 -> 19         0.48902
       6 -> 20         0.48901

 Excited State  65:      Singlet-EU    15.8574 eV   78.19 nm  f=0.0000  <S**2>=0.000
       5 -> 20         0.43034
       5 -> 21        -0.30873
       6 -> 19         0.43034
       9 -> 25        -0.11662

 Excited State  66:      Singlet-EU    15.8574 eV   78.19 nm  f=0.0000  <S**2>=0.000
       5 -> 19        -0.43033
       6 -> 20         0.43035
       6 -> 21         0.30873
       8 -> 25         0.11662

 Excited State  67:      Singlet-EU    15.9393 eV   77.79 nm  f=0.0684  <S**2>=0.000
       8 -> 24         0.70128

 Excited State  68:      Singlet-EU    15.9393 eV   77.79 nm  f=0.0684  <S**2>=0.000
       9 -> 24         0.70128

 Excited State  69:      Singlet-A2U   16.0047 eV   77.47 nm  f=0.0070  <S**2>=0.000
       4 -> 10         0.62314
       7 -> 21         0.11661
       7 -> 24        -0.25488

 Excited State  70:      Singlet-EG    16.4456 eV   75.39 nm  f=0.0000  <S**2>=0.000
       9 -> 25         0.69315

 Excited State  71:      Singlet-EG    16.4456 eV   75.39 nm  f=0.0000  <S**2>=0.000
       8 -> 25         0.69315

 Excited State  72:      Singlet-A1G   16.7287 eV   74.11 nm  f=0.0000  <S**2>=0.000
       4 -> 11         0.62895
       7 -> 25         0.27699

 Excited State  73:      Singlet-EU    16.8089 eV   73.76 nm  f=0.0211  <S**2>=0.000
       8 -> 26         0.70509

 Excited State  74:      Singlet-EU    16.8089 eV   73.76 nm  f=0.0211  <S**2>=0.000
       9 -> 26         0.70509

 Excited State  75:      Singlet-A2U   16.9376 eV   73.20 nm  f=0.3520  <S**2>=0.000
       4 -> 10         0.15705
       7 -> 21         0.12937
       7 -> 24         0.61605
       7 -> 33        -0.17168

 Excited State  76:      Singlet-EU    17.0636 eV   72.66 nm  f=0.0000  <S**2>=0.000
       5 -> 23        -0.49638
       6 -> 22         0.49639

 Excited State  77:      Singlet-EU    17.0636 eV   72.66 nm  f=0.0000  <S**2>=0.000
       5 -> 22         0.49639
       6 -> 23         0.49637

 Excited State  78:      Singlet-EU    17.0892 eV   72.55 nm  f=0.0000  <S**2>=0.000
       5 -> 22        -0.49953
       6 -> 23         0.49955

 Excited State  79:      Singlet-A1G   17.1137 eV   72.45 nm  f=0.0000  <S**2>=0.000
       4 -> 11        -0.20059
       5 -> 23         0.31147
       6 -> 22         0.31146
       7 -> 25         0.45771
       8 -> 28         0.14705
       9 -> 27         0.14705

 Excited State  80:      Singlet-A1G   17.2944 eV   71.69 nm  f=0.0000  <S**2>=0.000
       5 -> 23        -0.37830
       6 -> 22        -0.37830
       7 -> 25         0.41384

 Excited State  81:      Singlet-A1U   17.4762 eV   70.94 nm  f=0.0000  <S**2>=0.000
       7 -> 26         0.70640

 Excited State  82:      Singlet-EU    17.6570 eV   70.22 nm  f=0.0000  <S**2>=0.000
       8 -> 27        -0.49961
       9 -> 28         0.49962

 Excited State  83:      Singlet-EG    17.7167 eV   69.98 nm  f=0.0000  <S**2>=0.000
       4 -> 12         0.68840
       5 -> 24        -0.10838

 Excited State  84:      Singlet-EG    17.7167 eV   69.98 nm  f=0.0000  <S**2>=0.000
       4 -> 13         0.68840
       6 -> 24        -0.10838

 Excited State  85:      Singlet-EG    17.7877 eV   69.70 nm  f=0.0000  <S**2>=0.000
       8 -> 29        -0.49965
       9 -> 30         0.49965

 Excited State  86:      Singlet-EU    17.8298 eV   69.54 nm  f=0.0156  <S**2>=0.000
       8 -> 29        -0.24095
       9 -> 30        -0.24095
       9 -> 31         0.61180

 Excited State  87:      Singlet-EU    17.8298 eV   69.54 nm  f=0.0156  <S**2>=0.000
       8 -> 30         0.24095
       8 -> 31         0.61180
       9 -> 29        -0.24095

 Excited State  88:      Singlet-EU    17.9717 eV   68.99 nm  f=0.0000  <S**2>=0.000
       8 -> 28        -0.41727
       8 -> 32         0.33698
       9 -> 27         0.41727

 Excited State  89:      Singlet-EU    17.9717 eV   68.99 nm  f=0.0000  <S**2>=0.000
       8 -> 27         0.41727
       9 -> 28         0.41727
       9 -> 32         0.33698

 Excited State  90:      Singlet-EG    18.0048 eV   68.86 nm  f=0.0994  <S**2>=0.000
       6 -> 25        -0.11035
       7 -> 30         0.16900
       8 -> 30        -0.40342
       8 -> 31         0.33590
       9 -> 29         0.40342

 Excited State  91:      Singlet-EG    18.0048 eV   68.86 nm  f=0.0994  <S**2>=0.000
       5 -> 25        -0.11035
       7 -> 29         0.16900
       8 -> 29         0.40342
       9 -> 30         0.40342
       9 -> 31         0.33590

 Excited State  92:      Singlet-EU    18.0269 eV   68.78 nm  f=0.0000  <S**2>=0.000
       3 -> 10        -0.10152
       4 -> 11         0.12685
       5 -> 29        -0.10146
       6 -> 30        -0.10146
       7 -> 25        -0.13883
       8 -> 28         0.44031
       8 -> 35         0.10281
       9 -> 27         0.44030
       9 -> 34         0.10281

 Excited State  93:      Singlet-EG    18.2133 eV   68.07 nm  f=0.0000  <S**2>=0.000
       5 -> 24        -0.15861
       7 -> 27        -0.39712
       8 -> 27        -0.15182
       9 -> 28        -0.15181
       9 -> 32         0.51281

 Excited State  94:      Singlet-EG    18.2133 eV   68.07 nm  f=0.0000  <S**2>=0.000
       6 -> 24        -0.15860
       7 -> 28        -0.39711
       8 -> 28         0.15181
       8 -> 32         0.51282
       9 -> 27        -0.15182

 Excited State  95:      Singlet-EG    18.2958 eV   67.77 nm  f=0.2609  <S**2>=0.000
       8 -> 30         0.47610
       9 -> 29         0.47610

 Excited State  96:      Singlet-EU    18.3205 eV   67.67 nm  f=0.0005  <S**2>=0.000
       4 -> 14         0.67207
       7 -> 29        -0.18068

 Excited State  97:      Singlet-EU    18.3205 eV   67.67 nm  f=0.0005  <S**2>=0.000
       4 -> 15         0.67207
       7 -> 30        -0.18068

 Excited State  98:      Singlet-EG    18.3592 eV   67.53 nm  f=0.0000  <S**2>=0.000
       4 -> 12         0.11626
       5 -> 24         0.66555
       9 -> 32         0.11805

 Excited State  99:      Singlet-EG    18.3592 eV   67.53 nm  f=0.0000  <S**2>=0.000
       4 -> 13         0.11626
       6 -> 24         0.66556
       8 -> 32         0.11805

 Excited State 100:      Singlet-EG    18.3891 eV   67.42 nm  f=0.0000  <S**2>=0.000
       7 -> 27         0.57532
       8 -> 27        -0.15272
       9 -> 28        -0.15272
       9 -> 32         0.31609

 Excited State 101:      Singlet-EG    18.3891 eV   67.42 nm  f=0.0000  <S**2>=0.000
       7 -> 28         0.57532
       8 -> 28         0.15271
       8 -> 32         0.31609
       9 -> 27        -0.15272

 Excited State 102:      Singlet-EU    18.5211 eV   66.94 nm  f=0.0197  <S**2>=0.000
       4 -> 14         0.16855
       5 -> 25         0.14549
       7 -> 29         0.54707
       9 -> 33        -0.35153

 Excited State 103:      Singlet-EU    18.5211 eV   66.94 nm  f=0.0197  <S**2>=0.000
       4 -> 15         0.16855
       6 -> 25         0.14548
       7 -> 30         0.54707
       8 -> 33        -0.35153

 Excited State 104:      Singlet-A2U   18.5713 eV   66.76 nm  f=0.0439  <S**2>=0.000
       7 -> 31         0.68625
       7 -> 33         0.10662

 Excited State 105:      Singlet-A1G   18.8156 eV   65.89 nm  f=0.0000  <S**2>=0.000
       3 -> 10         0.10534
       7 -> 32         0.58692
       8 -> 35         0.26230
       9 -> 34         0.26230

 Excited State 106:      Singlet-EU    18.8262 eV   65.86 nm  f=0.0327  <S**2>=0.000
       5 -> 25         0.51063
       7 -> 29         0.12658
       9 -> 33         0.45664

 Excited State 107:      Singlet-EU    18.8262 eV   65.86 nm  f=0.0327  <S**2>=0.000
       6 -> 25         0.51063
       7 -> 30         0.12658
       8 -> 33         0.45664

 Excited State 108:      Singlet-EU    18.8781 eV   65.68 nm  f=0.0000  <S**2>=0.000
       8 -> 34         0.49640
       9 -> 35         0.49639

 Excited State 109:      Singlet-EU    18.8781 eV   65.68 nm  f=0.0000  <S**2>=0.000
       8 -> 35        -0.49639
       9 -> 34         0.49640

 Excited State 110:      Singlet-EU    18.8862 eV   65.65 nm  f=0.0000  <S**2>=0.000
       8 -> 34        -0.49854
       9 -> 35         0.49855

 Excited State 111:      Singlet-EU    18.9573 eV   65.40 nm  f=0.1839  <S**2>=0.000
       5 -> 25         0.43689
       5 -> 28        -0.11769
       6 -> 27        -0.11769
       7 -> 29        -0.29890
       9 -> 33        -0.39347

 Excited State 112:      Singlet-EU    18.9573 eV   65.40 nm  f=0.1839  <S**2>=0.000
       5 -> 27        -0.11769
       6 -> 25         0.43689
       6 -> 28         0.11769
       7 -> 30        -0.29889
       8 -> 33        -0.39347

 Excited State 113:      Singlet-A1G   18.9813 eV   65.32 nm  f=0.0000  <S**2>=0.000
       3 -> 10        -0.20056
       7 -> 32         0.38938
       8 -> 35        -0.38306
       9 -> 34        -0.38305

 Excited State 114:      Singlet-EG    19.2162 eV   64.52 nm  f=0.0000  <S**2>=0.000
       6 -> 26         0.67562
       8 -> 36         0.17850

 Excited State 115:      Singlet-EG    19.2162 eV   64.52 nm  f=0.0000  <S**2>=0.000
       5 -> 26         0.67562
       9 -> 36         0.17850

 Excited State 116:      Singlet-A2U   19.2276 eV   64.48 nm  f=0.1029  <S**2>=0.000
       4 -> 16         0.70318

 Excited State 117:      Singlet-EG    19.3714 eV   64.00 nm  f=0.0000  <S**2>=0.000
       5 -> 26        -0.18671
       9 -> 36         0.67787

 Excited State 118:      Singlet-EG    19.3714 eV   64.00 nm  f=0.0000  <S**2>=0.000
       6 -> 26        -0.18671
       8 -> 36         0.67787

 Excited State 119:      Singlet-A1G   19.4756 eV   63.66 nm  f=0.0000  <S**2>=0.000
       3 -> 10         0.63312

 The electronic state is 1-A1G.
 Alpha  occ. eigenvalues --   -9.99132  -9.99127  -0.69185  -0.56126  -0.39488
 Alpha  occ. eigenvalues --   -0.39488  -0.33021  -0.30721  -0.30721
 Alpha virt. eigenvalues --    0.01692   0.04732   0.08786   0.08786   0.10905
 Alpha virt. eigenvalues --    0.10905   0.14500   0.15491   0.15491   0.17778
 Alpha virt. eigenvalues --    0.17778   0.17851   0.23445   0.23445   0.27602

 Mulliken charges:
               1
     1  C    0.060118
     2  C    0.060118
     3  H   -0.020039
     4  H   -0.020039
     5  H   -0.020039
     6  H   -0.020039
     7  H   -0.020039
     8  H   -0.020039
 Sum of Mulliken charges =  -0.00000

 Dipole moment (field-independent basis, Debye):
    X=              0.0000    Y=             -0.0000    Z=              0.0000  Tot=              0.0000
 Quadrupole moment (field-independent basis, Debye-Ang):
   XX=            -14.9469   YY=            -14.9469   ZZ=            -15.6777
   XY=             -0.0000   XZ=             -0.0000   YZ=             -0.0000

 Normal termination of Gaussian 16 at Mon Mar 21 20:26:48 2022.
