 Gaussian 16, Revision C.01,
 Gaussian 16:  EM64L-G16RevC.01  3-Jul-2019

 ----------------------------------------------------------------------
 #P TD(Nstates=10000) tpsstpss/Gen SCF(maxcycles=100) Int(Grid=ultrafin
 e)
 ----------------------------------------------------------------------

 ---------------------
 xGDB7_00001_tier4.com
 ---------------------
 Symbolic Z-matrix:
 Charge =  0 Multiplicity = 1

                         Standard orientation:
 ---------------------------------------------------------------------
 Center     Atomic      Atomic             Coordinates (Angstroms)
 Number     Number       Type             X           Y           Z
 ---------------------------------------------------------------------
      1          6           0        0.000000    0.000000    0.660866
      2          6           0        0.000000    0.000000   -0.660866
      3          1           0        0.000000    0.922586    1.229258
      4          1           0       -0.000000   -0.922586    1.229258
      5          1           0        0.000000    0.922586   -1.229258
      6          1           0       -0.000000   -0.922586   -1.229258
 ---------------------------------------------------------------------

 SCF Done:  E(RTPSS-TPSS) =  -78.5491146957     A.U. after    9 cycles

 Excitation energies and oscillator strengths:

 Excited State   1:      Singlet-B3U    7.5274 eV  164.71 nm  f=0.0653  <S**2>=0.000
       8 -> 10         0.70708
 This state for optimization and/or second-order correction.
 Total Energy, E(TD-HF/TD-DFT) =  -78.2724884379
 Copying the excited state density for this state as the 1-particle RhoCI density.

 Excited State   2:      Singlet-B1U    8.0071 eV  154.84 nm  f=0.3513  <S**2>=0.000
       8 ->  9         0.69476
       8 -> 20        -0.10418

 Excited State   3:      Singlet-B2G    8.1186 eV  152.72 nm  f=0.0000  <S**2>=0.000
       8 -> 11         0.70642

 Excited State   4:      Singlet-B1G    8.1470 eV  152.18 nm  f=0.0000  <S**2>=0.000
       7 ->  9         0.70224

 Excited State   5:      Singlet-B1G    8.9528 eV  138.49 nm  f=0.0000  <S**2>=0.000
       8 -> 12         0.70245

 Excited State   6:      Singlet-B3G    9.4778 eV  130.82 nm  f=0.0000  <S**2>=0.000
       7 -> 10         0.70698

 Excited State   7:      Singlet-B2G    9.7424 eV  127.26 nm  f=0.0000  <S**2>=0.000
       6 ->  9         0.70511

 Excited State   8:      Singlet-B3U   10.0684 eV  123.14 nm  f=0.0531  <S**2>=0.000
       8 -> 13         0.70268

 Excited State   9:      Singlet-B2U   10.0853 eV  122.94 nm  f=0.0963  <S**2>=0.000
       7 -> 11         0.70645

 Excited State  10:      Singlet-AU    10.5007 eV  118.07 nm  f=0.0000  <S**2>=0.000
       8 -> 14         0.70620

 Excited State  11:      Singlet-B3U   11.0297 eV  112.41 nm  f=0.1760  <S**2>=0.000
       8 -> 15         0.69661

 Excited State  12:      Singlet-B1U   11.0761 eV  111.94 nm  f=0.1651  <S**2>=0.000
       6 -> 11        -0.11613
       7 -> 12         0.69234

 Excited State  13:      Singlet-AU    11.1245 eV  111.45 nm  f=0.0000  <S**2>=0.000
       5 ->  9         0.70626

 Excited State  14:      Singlet-AG    11.1943 eV  110.76 nm  f=0.0000  <S**2>=0.000
       6 -> 10         0.63854
       8 -> 16         0.30057

 Excited State  15:      Singlet-B2U   11.5311 eV  107.52 nm  f=0.0856  <S**2>=0.000
       6 -> 12        -0.11705
       8 -> 17         0.68975

 Excited State  16:      Singlet-AG    11.5395 eV  107.44 nm  f=0.0000  <S**2>=0.000
       6 -> 10        -0.28051
       7 -> 14        -0.20740
       8 -> 16         0.60200

 Excited State  17:      Singlet-B1U   11.7570 eV  105.46 nm  f=0.2646  <S**2>=0.000
       6 -> 11         0.69625
       7 -> 12         0.11055

 Excited State  18:      Singlet-B2G   11.7890 eV  105.17 nm  f=0.0000  <S**2>=0.000
       8 -> 18         0.70422

 Excited State  19:      Singlet-B3G   12.0755 eV  102.67 nm  f=0.0000  <S**2>=0.000
       7 -> 13         0.69907

 Excited State  20:      Singlet-B1G   12.1998 eV  101.63 nm  f=0.0000  <S**2>=0.000
       8 -> 19         0.70677

 Excited State  21:      Singlet-B2U   12.5149 eV   99.07 nm  f=0.0503  <S**2>=0.000
       5 -> 10         0.64664
       6 -> 12        -0.28407

 Excited State  22:      Singlet-B2U   12.6982 eV   97.64 nm  f=0.2329  <S**2>=0.000
       5 -> 10         0.27201
       6 -> 12         0.62313
       7 -> 18         0.14302
       8 -> 17         0.10074

 Excited State  23:      Singlet-AG    12.7359 eV   97.35 nm  f=0.0000  <S**2>=0.000
       5 -> 12         0.18023
       7 -> 14         0.65335
       8 -> 16         0.14244

 Excited State  24:      Singlet-B3G   12.9288 eV   95.90 nm  f=0.0000  <S**2>=0.000
       7 -> 15         0.69619

 Excited State  25:      Singlet-B3G   13.0679 eV   94.88 nm  f=0.0000  <S**2>=0.000
       5 -> 11         0.70631

 Excited State  26:      Singlet-AU    13.1255 eV   94.46 nm  f=0.0000  <S**2>=0.000
       7 -> 16         0.70672

 Excited State  27:      Singlet-B2G   13.4179 eV   92.40 nm  f=0.0000  <S**2>=0.000
       7 -> 17         0.63015
       8 -> 21        -0.31770

 Excited State  28:      Singlet-B2G   13.6818 eV   90.62 nm  f=0.0000  <S**2>=0.000
       7 -> 17         0.31302
       8 -> 21         0.62754

 Excited State  29:      Singlet-AG    13.6826 eV   90.61 nm  f=0.0000  <S**2>=0.000
       5 -> 12         0.11639
       6 -> 13         0.69640

 Excited State  30:      Singlet-B3G   13.7459 eV   90.20 nm  f=0.0000  <S**2>=0.000
       8 -> 22         0.69949

 Excited State  31:      Singlet-B1U   13.7599 eV   90.11 nm  f=0.0135  <S**2>=0.000
       4 -> 10         0.10732
       5 -> 14        -0.11486
       7 -> 19        -0.11574
       8 -> 20         0.66798

 Excited State  32:      Singlet-B2U   14.0031 eV   88.54 nm  f=0.3547  <S**2>=0.000
       5 -> 13         0.18894
       7 -> 18         0.65989

 Excited State  33:      Singlet-B3G   14.0771 eV   88.08 nm  f=0.0000  <S**2>=0.000
       6 -> 14         0.70663

 Excited State  34:      Singlet-AG    14.2148 eV   87.22 nm  f=0.0000  <S**2>=0.000
       5 -> 12         0.54632
       6 -> 15        -0.41428

 Excited State  35:      Singlet-B3U   14.4842 eV   85.60 nm  f=0.0391  <S**2>=0.000
       4 ->  9         0.60278
       5 -> 17        -0.10439
       6 -> 16         0.30366
       7 -> 22        -0.13985

 Excited State  36:      Singlet-B1U   14.5391 eV   85.28 nm  f=0.3546  <S**2>=0.000
       4 -> 10         0.14498
       7 -> 19         0.66751

 Excited State  37:      Singlet-B3U   14.9863 eV   82.73 nm  f=0.1274  <S**2>=0.000
       4 ->  9        -0.24931
       5 -> 17         0.10552
       6 -> 16         0.63126
       7 -> 22         0.11631

 Excited State  38:      Singlet-B1G   15.0648 eV   82.30 nm  f=0.0000  <S**2>=0.000
       6 -> 17         0.68202
       7 -> 20        -0.18225

 Excited State  39:      Singlet-AG    15.0911 eV   82.16 nm  f=0.0000  <S**2>=0.000
       4 -> 11        -0.28889
       5 -> 12         0.31185
       6 -> 15         0.52749

 Excited State  40:      Singlet-B3U   15.2070 eV   81.53 nm  f=0.0406  <S**2>=0.000
       8 -> 23         0.69944

 Excited State  41:      Singlet-B2U   15.2349 eV   81.38 nm  f=0.3064  <S**2>=0.000
       5 -> 13         0.62640
       6 -> 19        -0.27036
       7 -> 18        -0.11443

 Excited State  42:      Singlet-B1G   15.2695 eV   81.20 nm  f=0.0000  <S**2>=0.000
       6 -> 17         0.18210
       7 -> 20         0.68141

 Excited State  43:      Singlet-B1U   15.2742 eV   81.17 nm  f=0.0001  <S**2>=0.000
       4 -> 10         0.52890
       5 -> 14         0.28148
       6 -> 18         0.36976

 Excited State  44:      Singlet-B1U   15.5165 eV   79.90 nm  f=0.0255  <S**2>=0.000
       4 -> 10        -0.17815
       5 -> 14        -0.39199
       6 -> 18         0.55837

 Excited State  45:      Singlet-B2U   15.5516 eV   79.72 nm  f=0.0039  <S**2>=0.000
       7 -> 21         0.70218

 Excited State  46:      Singlet-B1G   15.7352 eV   78.79 nm  f=0.0000  <S**2>=0.000
       8 -> 24         0.70357

 Excited State  47:      Singlet-B3U   15.7484 eV   78.73 nm  f=0.1924  <S**2>=0.000
       4 ->  9         0.13204
       5 -> 17        -0.14627
       7 -> 22         0.67276

 Excited State  48:      Singlet-B2U   15.8904 eV   78.02 nm  f=0.0000  <S**2>=0.000
       5 -> 15         0.69533
       6 -> 19        -0.12452

 Excited State  49:      Singlet-B1U   15.9575 eV   77.70 nm  f=0.0203  <S**2>=0.000
       4 -> 10        -0.37555
       5 -> 14         0.48486
       6 -> 18         0.20548
       6 -> 21         0.14286
       7 -> 19         0.10825
       8 -> 20         0.15323

 Excited State  50:      Singlet-AG    16.0362 eV   77.32 nm  f=0.0000  <S**2>=0.000
       4 -> 11         0.16185
       5 -> 19        -0.10347
       6 -> 15         0.10205
       8 -> 26         0.66446

 Excited State  51:      Singlet-B1G   16.1530 eV   76.76 nm  f=0.0000  <S**2>=0.000
       5 -> 16         0.70368

 Excited State  52:      Singlet-B2U   16.1682 eV   76.68 nm  f=0.2422  <S**2>=0.000
       5 -> 13         0.22046
       5 -> 15         0.11714
       6 -> 19         0.62630
       7 -> 18        -0.12043

 Excited State  53:      Singlet-B2G   16.1825 eV   76.62 nm  f=0.0000  <S**2>=0.000
       8 -> 25         0.70420

 Excited State  54:      Singlet-AG    16.2040 eV   76.51 nm  f=0.0000  <S**2>=0.000
       4 -> 11         0.60653
       5 -> 12         0.16672
       6 -> 15         0.14296
       8 -> 26        -0.19897

 Excited State  55:      Singlet-AU    16.3011 eV   76.06 nm  f=0.0000  <S**2>=0.000
       8 -> 27         0.70649

 Excited State  56:      Singlet-B3U   16.6230 eV   74.59 nm  f=0.2823  <S**2>=0.000
       4 ->  9         0.12122
       5 -> 17         0.64239
       8 -> 28        -0.22495

 Excited State  57:      Singlet-B3G   16.6715 eV   74.37 nm  f=0.0000  <S**2>=0.000
       4 -> 12         0.67987
       5 -> 18         0.17723

 Excited State  58:      Singlet-B3G   16.8171 eV   73.73 nm  f=0.0000  <S**2>=0.000
       4 -> 12        -0.13880
       5 -> 18         0.64069
       7 -> 23        -0.25690

 Excited State  59:      Singlet-B2G   16.8953 eV   73.38 nm  f=0.0000  <S**2>=0.000
       6 -> 20         0.70665

 Excited State  60:      Singlet-B3G   17.2704 eV   71.79 nm  f=0.0000  <S**2>=0.000
       4 -> 12        -0.12885
       5 -> 18         0.22551
       7 -> 23         0.65168

 Excited State  61:      Singlet-AU    17.2954 eV   71.69 nm  f=0.0000  <S**2>=0.000
       6 -> 22         0.70397

 Excited State  62:      Singlet-B1U   17.3719 eV   71.37 nm  f=0.2193  <S**2>=0.000
       6 -> 21         0.63131
       7 -> 24         0.26473

 Excited State  63:      Singlet-AG    17.4053 eV   71.23 nm  f=0.0000  <S**2>=0.000
       5 -> 19         0.68808

 Excited State  64:      Singlet-B3U   17.7178 eV   69.98 nm  f=0.2703  <S**2>=0.000
       4 ->  9         0.10836
       5 -> 17         0.17055
       8 -> 28         0.65335
       8 -> 32         0.11176

 Excited State  65:      Singlet-B1U   17.8111 eV   69.61 nm  f=0.0850  <S**2>=0.000
       4 -> 13         0.69931

 Excited State  66:      Singlet-B1G   17.9934 eV   68.91 nm  f=0.0000  <S**2>=0.000
       8 -> 29         0.70592

 Excited State  67:      Singlet-B1U   18.1064 eV   68.48 nm  f=0.2486  <S**2>=0.000
       4 -> 15        -0.15811
       6 -> 21        -0.23582
       7 -> 24         0.62151
       7 -> 29         0.12909

 Excited State  68:      Singlet-AU    18.1428 eV   68.34 nm  f=0.0000  <S**2>=0.000
       5 -> 20        -0.12217
       7 -> 26         0.69294

 Excited State  69:      Singlet-B2U   18.1857 eV   68.18 nm  f=0.0012  <S**2>=0.000
       4 -> 14        -0.40338
       7 -> 25         0.54863
       8 -> 33        -0.18152

 Excited State  70:      Singlet-AU    18.2474 eV   67.95 nm  f=0.0000  <S**2>=0.000
       5 -> 20        -0.48160
       7 -> 26        -0.12550
       8 -> 30         0.49400

 Excited State  71:      Singlet-AG    18.2648 eV   67.88 nm  f=0.0000  <S**2>=0.000
       7 -> 27         0.69451

 Excited State  72:      Singlet-B2U   18.3096 eV   67.72 nm  f=0.1553  <S**2>=0.000
       4 -> 14         0.55183
       7 -> 25         0.42986

 Excited State  73:      Singlet-AU    18.3270 eV   67.65 nm  f=0.0000  <S**2>=0.000
       5 -> 20         0.49829
       8 -> 30         0.49897

 Excited State  74:      Singlet-B2G   18.3850 eV   67.44 nm  f=0.0000  <S**2>=0.000
       5 -> 22        -0.13815
       8 -> 31         0.68914

 Excited State  75:      Singlet-B2U   18.4632 eV   67.15 nm  f=0.0516  <S**2>=0.000
       4 -> 14        -0.15496
       6 -> 24         0.16068
       8 -> 33         0.65298

 Excited State  76:      Singlet-B3U   18.5326 eV   66.90 nm  f=0.1189  <S**2>=0.000
       8 -> 32         0.68949

 Excited State  77:      Singlet-B3G   18.5611 eV   66.80 nm  f=0.0000  <S**2>=0.000
       5 -> 21         0.70461

 Excited State  78:      Singlet-B2G   18.6288 eV   66.56 nm  f=0.0000  <S**2>=0.000
       3 ->  9        -0.26906
       5 -> 22         0.64389
       8 -> 31         0.10647

 Excited State  79:      Singlet-B1U   18.7200 eV   66.23 nm  f=0.1559  <S**2>=0.000
       4 -> 15         0.67897
       7 -> 24         0.14160

 Excited State  80:      Singlet-B2G   18.8804 eV   65.67 nm  f=0.0000  <S**2>=0.000
       3 ->  9        -0.30098
       4 -> 16         0.61994
       5 -> 22        -0.10702

 Excited State  81:      Singlet-AG    18.9628 eV   65.38 nm  f=0.0000  <S**2>=0.000
       3 -> 10         0.10471
       4 -> 18        -0.18973
       6 -> 23         0.66458

 Excited State  82:      Singlet-B2G   19.0415 eV   65.11 nm  f=0.0000  <S**2>=0.000
       3 ->  9         0.52141
       4 -> 16         0.33515
       5 -> 22         0.22242
       8 -> 35         0.22777

 Excited State  83:      Singlet-B1U   19.1674 eV   64.68 nm  f=0.0291  <S**2>=0.000
       8 -> 34         0.69721

 Excited State  84:      Singlet-AU    19.2042 eV   64.56 nm  f=0.0000  <S**2>=0.000
       4 -> 17         0.70299

 Excited State  85:      Singlet-B3G   19.3905 eV   63.94 nm  f=0.0000  <S**2>=0.000
       7 -> 28         0.70355

 Excited State  86:      Singlet-B2U   19.5439 eV   63.44 nm  f=0.0346  <S**2>=0.000
       5 -> 23         0.11590
       6 -> 24         0.63371
       7 -> 31         0.24998

 Excited State  87:      Singlet-AG    19.6380 eV   63.13 nm  f=0.0000  <S**2>=0.000
       3 -> 10         0.31868
       4 -> 18         0.61509
       6 -> 23         0.11411

 Excited State  88:      Singlet-B3G   19.8502 eV   62.46 nm  f=0.0000  <S**2>=0.000
       6 -> 27         0.69997

 Excited State  89:      Singlet-B1U   19.8987 eV   62.31 nm  f=0.0874  <S**2>=0.000
       6 -> 25         0.69822

 Excited State  90:      Singlet-AG    19.9669 eV   62.09 nm  f=0.0000  <S**2>=0.000
       3 -> 10         0.57835
       4 -> 18        -0.24330
       6 -> 23        -0.12284
       7 -> 30        -0.28961

 Excited State  91:      Singlet-B3U   19.9709 eV   62.08 nm  f=0.2598  <S**2>=0.000
       4 -> 20        -0.12064
       6 -> 26         0.68447

 Excited State  92:      Singlet-B3G   20.0502 eV   61.84 nm  f=0.0000  <S**2>=0.000
       4 -> 19         0.65435
       7 -> 32        -0.24588

 Excited State  93:      Singlet-B2U   20.2170 eV   61.33 nm  f=0.0820  <S**2>=0.000
       5 -> 23         0.65907
       7 -> 31        -0.24970

 Excited State  94:      Singlet-B1U   20.3468 eV   60.94 nm  f=0.1110  <S**2>=0.000
       3 -> 11        -0.41870
       7 -> 29         0.54862

 Excited State  95:      Singlet-B2G   20.3900 eV   60.81 nm  f=0.0000  <S**2>=0.000
       3 ->  9         0.10898
       7 -> 33         0.54372
       8 -> 35        -0.43132

 Excited State  96:      Singlet-B3G   20.5787 eV   60.25 nm  f=0.0000  <S**2>=0.000
       4 -> 19         0.22545
       7 -> 32         0.65338

 Excited State  97:      Singlet-B1U   20.5894 eV   60.22 nm  f=0.0073  <S**2>=0.000
       3 -> 11         0.54951
       6 -> 31         0.10582
       7 -> 29         0.39675

 Excited State  98:      Singlet-AG    20.5966 eV   60.20 nm  f=0.0000  <S**2>=0.000
       3 -> 10         0.18339
       4 -> 18        -0.10594
       5 -> 24        -0.40615
       7 -> 30         0.51480

 Excited State  99:      Singlet-B2G   20.6222 eV   60.12 nm  f=0.0000  <S**2>=0.000
       3 ->  9        -0.18716
       7 -> 33         0.44785
       8 -> 35         0.49165

 Excited State 100:      Singlet-B2U   20.9960 eV   59.05 nm  f=0.3833  <S**2>=0.000
       3 -> 12        -0.28085
       5 -> 23         0.18408
       6 -> 24        -0.16487
       6 -> 29        -0.27303
       7 -> 31         0.49814
       7 -> 35         0.10862

 Excited State 101:      Singlet-AG    21.0266 eV   58.97 nm  f=0.0000  <S**2>=0.000
       4 -> 21         0.34488
       5 -> 24         0.36575
       6 -> 28         0.42675
       7 -> 30         0.18686

 Excited State 102:      Singlet-B1G   21.0900 eV   58.79 nm  f=0.0000  <S**2>=0.000
       5 -> 26         0.50888
       7 -> 34         0.48405

 Excited State 103:      Singlet-AG    21.1159 eV   58.72 nm  f=0.0000  <S**2>=0.000
       4 -> 21        -0.35109
       5 -> 24        -0.19959
       6 -> 28         0.55426
       7 -> 30        -0.12020

 Excited State 104:      Singlet-B1G   21.1535 eV   58.61 nm  f=0.0000  <S**2>=0.000
       5 -> 26        -0.48189
       7 -> 34         0.51448

 Excited State 105:      Singlet-B3U   21.2000 eV   58.48 nm  f=0.0000  <S**2>=0.000
       4 -> 20         0.69035
       6 -> 26         0.10170

 Excited State 106:      Singlet-B3G   21.2137 eV   58.45 nm  f=0.0000  <S**2>=0.000
       5 -> 25         0.70212

 Excited State 107:      Singlet-B1U   21.2693 eV   58.29 nm  f=0.0593  <S**2>=0.000
       5 -> 27         0.70038

 Excited State 108:      Singlet-B1G   21.4263 eV   57.87 nm  f=0.0000  <S**2>=0.000
       4 -> 22         0.70056

 Excited State 109:      Singlet-B2U   21.5741 eV   57.47 nm  f=0.0051  <S**2>=0.000
       3 -> 12         0.57669
       6 -> 29        -0.36298

 Excited State 110:      Singlet-AG    21.6484 eV   57.27 nm  f=0.0000  <S**2>=0.000
       4 -> 21         0.45877
       5 -> 24        -0.27985
       6 -> 32        -0.37362
       7 -> 30        -0.18245

 Excited State 111:      Singlet-B3G   21.9055 eV   56.60 nm  f=0.0000  <S**2>=0.000
       6 -> 30         0.70148

 Excited State 112:      Singlet-B2U   22.0572 eV   56.21 nm  f=0.0659  <S**2>=0.000
       3 -> 12         0.21865
       5 -> 28        -0.29610
       5 -> 32         0.17198
       6 -> 29         0.44422
       7 -> 31         0.17666
       7 -> 35         0.29541

 Excited State 113:      Singlet-B1G   22.1626 eV   55.94 nm  f=0.0000  <S**2>=0.000
       6 -> 33         0.70676

 Excited State 114:      Singlet-B2U   22.2520 eV   55.72 nm  f=0.1103  <S**2>=0.000
       5 -> 32        -0.16682
       6 -> 29        -0.21994
       7 -> 31        -0.15452
       7 -> 35         0.61568

 Excited State 115:      Singlet-B1U   22.2989 eV   55.60 nm  f=0.1695  <S**2>=0.000
       4 -> 23        -0.23741
       6 -> 31         0.64602
       6 -> 35        -0.10979

 Excited State 116:      Singlet-B2G   22.3175 eV   55.55 nm  f=0.0000  <S**2>=0.000
       8 -> 36         0.69649

 Excited State 117:      Singlet-B3G   22.3192 eV   55.55 nm  f=0.0000  <S**2>=0.000
       3 -> 14        -0.10719
       5 -> 31         0.11441
       8 -> 37         0.68107

 Excited State 118:      Singlet-AG    22.4165 eV   55.31 nm  f=0.0000  <S**2>=0.000
       3 -> 13         0.60716
       6 -> 32         0.31827

 Excited State 119:      Singlet-AG    22.5056 eV   55.09 nm  f=0.0000  <S**2>=0.000
       3 -> 13        -0.34526
       3 -> 15        -0.12666
       4 -> 21         0.15521
       4 -> 25        -0.15264
       5 -> 24        -0.19159
       6 -> 32         0.47167
       7 -> 30        -0.13700
       8 -> 40         0.11954

 Excited State 120:      Singlet-B2U   22.5242 eV   55.04 nm  f=0.0410  <S**2>=0.000
       3 -> 12         0.12352
       5 -> 28         0.62871
       5 -> 32         0.18423
       6 -> 29         0.15500
       7 -> 31         0.11499

 Excited State 121:      Singlet-B2G   22.7731 eV   54.44 nm  f=0.0000  <S**2>=0.000
       6 -> 34         0.70618

 Excited State 122:      Singlet-B3G   22.9161 eV   54.10 nm  f=0.0000  <S**2>=0.000
       3 -> 14         0.67999
       5 -> 31         0.17270

 Excited State 123:      Singlet-B1U   23.1522 eV   53.55 nm  f=0.0001  <S**2>=0.000
       4 -> 23         0.56704
       5 -> 30         0.36366
       6 -> 31         0.13927
       6 -> 35        -0.12448

 Excited State 124:      Singlet-AU    23.1974 eV   53.45 nm  f=0.0000  <S**2>=0.000
       8 -> 38         0.70414

 Excited State 125:      Singlet-AG    23.2016 eV   53.44 nm  f=0.0000  <S**2>=0.000
       5 -> 29         0.68842

 Excited State 126:      Singlet-B3U   23.4871 eV   52.79 nm  f=0.0804  <S**2>=0.000
       3 -> 16         0.38247
       5 -> 33         0.59203

 Excited State 127:      Singlet-AG    23.4913 eV   52.78 nm  f=0.0000  <S**2>=0.000
       3 -> 15         0.68159

 Excited State 128:      Singlet-B3G   23.5042 eV   52.75 nm  f=0.0000  <S**2>=0.000
       4 -> 24         0.62069
       5 -> 31         0.32084

 Excited State 129:      Singlet-B1U   23.5045 eV   52.75 nm  f=0.1336  <S**2>=0.000
       4 -> 23        -0.23691
       5 -> 30         0.54344
       6 -> 35         0.35063

 Excited State 130:      Singlet-B3U   23.8187 eV   52.05 nm  f=0.0012  <S**2>=0.000
       3 -> 16         0.57739
       5 -> 33        -0.35693
       7 -> 37        -0.15833

 Excited State 131:      Singlet-B1G   23.8759 eV   51.93 nm  f=0.0000  <S**2>=0.000
       3 -> 17         0.70664

 Excited State 132:      Singlet-B3G   23.9114 eV   51.85 nm  f=0.0000  <S**2>=0.000
       3 -> 14        -0.12292
       4 -> 24        -0.32002
       4 -> 29        -0.12914
       5 -> 31         0.57647
       8 -> 37        -0.10188

 Excited State 133:      Singlet-B2U   23.9705 eV   51.72 nm  f=0.0128  <S**2>=0.000
       4 -> 27         0.69321
       7 -> 36         0.11258

 Excited State 134:      Singlet-B2G   24.0298 eV   51.60 nm  f=0.0000  <S**2>=0.000
       4 -> 26         0.69576

 Excited State 135:      Singlet-B2U   24.0723 eV   51.50 nm  f=0.2613  <S**2>=0.000
       5 -> 32        -0.43755
       6 -> 29         0.10106
       7 -> 31         0.12232
       7 -> 36         0.49877

 Excited State 136:      Singlet-AU    24.1491 eV   51.34 nm  f=0.0000  <S**2>=0.000
       5 -> 34         0.70403

 Excited State 137:      Singlet-B1U   24.1557 eV   51.33 nm  f=0.0253  <S**2>=0.000
       3 -> 18         0.67050
       6 -> 35        -0.20912

 Excited State 138:      Singlet-B2U   24.2613 eV   51.10 nm  f=0.2019  <S**2>=0.000
       3 -> 19         0.22714
       4 -> 27        -0.10613
       5 -> 32         0.43139
       7 -> 31        -0.11517
       7 -> 36         0.44092

 Excited State 139:      Singlet-AG    24.2730 eV   51.08 nm  f=0.0000  <S**2>=0.000
       4 -> 25         0.64258
       7 -> 38         0.13130
       8 -> 40         0.20126

 Excited State 140:      Singlet-B3U   24.5967 eV   50.41 nm  f=0.1233  <S**2>=0.000

 The electronic state is 1-AG.
 Alpha  occ. eigenvalues --  -10.00171 -10.00100  -0.70034  -0.53032  -0.42996
 Alpha  occ. eigenvalues --   -0.38027  -0.32023  -0.24831
 Alpha virt. eigenvalues --   -0.02488   0.02810   0.04905   0.08028   0.12103
 Alpha virt. eigenvalues --    0.13840   0.15596   0.16577   0.17527   0.18540
 Alpha virt. eigenvalues --    0.20234   0.24391   0.25137   0.25745   0.31144

 Mulliken charges:
               1
     1  C    0.127012
     2  C    0.127012
     3  H   -0.063506
     4  H   -0.063506
     5  H   -0.063506
     6  H   -0.063506
 Sum of Mulliken charges =   0.00000

 Dipole moment (field-independent basis, Debye):
    X=              0.0000    Y=              0.0000    Z=              0.0000  Tot=              0.0000
 Quadrupole moment (field-independent basis, Debye-Ang):
   XX=            -15.2352   YY=            -12.4791   ZZ=            -12.4585
   XY=              0.0000   XZ=             -0.0000   YZ=             -0.0000

 Normal termination of Gaussian 16 at Mon Mar 21 20:26:32 2022.
