 Gaussian 16, Revision C.01,
 Gaussian 16:  EM64L-G16RevC.01  3-Jul-2019

 ----------------------------------------------------------------------
 #P TD(Nstates=10000) wB97XD/Gen SCF(maxcycles=100) Int(Grid=ultrafine)
 ----------------------------------------------------------------------

 ---------------------
 xGDB7_00001_tier4.com
 ---------------------
 Symbolic Z-matrix:
 Charge =  0 Multiplicity = 1

                         Standard orientation:
 ---------------------------------------------------------------------
 Center     Atomic      Atomic             Coordinates (Angstroms)
 Number     Number       Type             X           Y           Z
 ---------------------------------------------------------------------
      1          6           0        0.000000    0.729549   -0.367364
      2          6           0       -0.000000   -0.729549   -0.367364
      3          8           0       -0.000000   -0.000000    0.845033
      4          1           0       -0.918945    1.264243   -0.587975
      5          1           0        0.918945    1.264243   -0.587975
      6          1           0        0.918945   -1.264243   -0.587975
      7          1           0       -0.918945   -1.264243   -0.587975
 ---------------------------------------------------------------------

 SCF Done:  E(RwB97XD) =  -153.634961426     A.U. after   12 cycles

 Excitation energies and oscillator strengths:

 Excited State   1:      Singlet-B1     8.1146 eV  152.79 nm  f=0.0172  <S**2>=0.000
      12 -> 13         0.62466
      12 -> 15         0.30212
      12 -> 18         0.10704
 This state for optimization and/or second-order correction.
 Total Energy, E(TD-HF/TD-DFT) =  -153.336756805
 Copying the excited state density for this state as the 1-particle RhoCI density.

 Excited State   2:      Singlet-B1     8.3935 eV  147.71 nm  f=0.0321  <S**2>=0.000
      12 -> 13        -0.30720
      12 -> 15         0.61958

 Excited State   3:      Singlet-A2     8.4985 eV  145.89 nm  f=0.0000  <S**2>=0.000
      12 -> 14        -0.44432
      12 -> 17         0.53670

 Excited State   4:      Singlet-A2     8.9522 eV  138.50 nm  f=0.0000  <S**2>=0.000
      12 -> 14         0.53216
      12 -> 17         0.41063
      12 -> 20        -0.17111

 Excited State   5:      Singlet-A1     9.0853 eV  136.47 nm  f=0.0220  <S**2>=0.000
      11 -> 13         0.42737
      12 -> 16         0.55389

 Excited State   6:      Singlet-A1     9.1981 eV  134.79 nm  f=0.0302  <S**2>=0.000
      11 -> 13         0.54767
      12 -> 16        -0.43093

 Excited State   7:      Singlet-A1     9.5138 eV  130.32 nm  f=0.0594  <S**2>=0.000
      11 -> 15         0.67756
      11 -> 18         0.12811

 Excited State   8:      Singlet-B2     9.8152 eV  126.32 nm  f=0.0987  <S**2>=0.000
      11 -> 14         0.68808
      11 -> 17        -0.12519

 Excited State   9:      Singlet-B1    10.1100 eV  122.64 nm  f=0.0054  <S**2>=0.000
      11 -> 16        -0.36466
      12 -> 18         0.58750

 Excited State  10:      Singlet-B1    10.2158 eV  121.36 nm  f=0.0194  <S**2>=0.000
      11 -> 16         0.59377
      12 -> 18         0.35926

 Excited State  11:      Singlet-B2    10.6023 eV  116.94 nm  f=0.1363  <S**2>=0.000
       9 -> 15        -0.13364
      11 -> 14         0.13285
      11 -> 17         0.65360

 Excited State  12:      Singlet-A2    10.8544 eV  114.23 nm  f=0.0000  <S**2>=0.000
      10 -> 13         0.66178
      12 -> 20        -0.17638

 Excited State  13:      Singlet-A2    11.2190 eV  110.51 nm  f=0.0000  <S**2>=0.000
      10 -> 13         0.17850
      10 -> 15         0.15076
      12 -> 17         0.16736
      12 -> 20         0.62993

 Excited State  14:      Singlet-B1    11.2529 eV  110.18 nm  f=0.0536  <S**2>=0.000
      10 -> 14        -0.43241
      10 -> 17         0.16911
      12 -> 21         0.51132

 Excited State  15:      Singlet-A1    11.2958 eV  109.76 nm  f=0.0125  <S**2>=0.000
      11 -> 15        -0.13776
      11 -> 18         0.67501

 Excited State  16:      Singlet-B2    11.3835 eV  108.92 nm  f=0.1257  <S**2>=0.000
      10 -> 16        -0.14466
      12 -> 19         0.67428

 Excited State  17:      Singlet-A2    11.5344 eV  107.49 nm  f=0.0000  <S**2>=0.000
      10 -> 15         0.63921
      10 -> 18         0.18233
      12 -> 20        -0.15384

 Excited State  18:      Singlet-B2    11.5770 eV  107.10 nm  f=0.0314  <S**2>=0.000
       9 -> 13         0.67622
       9 -> 15        -0.11088
      12 -> 19        -0.11070

 Excited State  19:      Singlet-B1    11.6694 eV  106.25 nm  f=0.0214  <S**2>=0.000
      10 -> 14         0.34555
      10 -> 17        -0.41008
      12 -> 21         0.43670

 Excited State  20:      Singlet-A1    11.8313 eV  104.79 nm  f=0.0000  <S**2>=0.000
       9 -> 17         0.27150
      11 -> 21         0.13795
      12 -> 22         0.62367

 Excited State  21:      Singlet-B1    11.9603 eV  103.66 nm  f=0.0541  <S**2>=0.000
      10 -> 14         0.41693
      10 -> 17         0.51421
      10 -> 20        -0.11082
      12 -> 21         0.16433

 Excited State  22:      Singlet-B2    11.9631 eV  103.64 nm  f=0.0799  <S**2>=0.000
       9 -> 13         0.10339
       9 -> 15         0.64316
      11 -> 17         0.16168
      11 -> 20         0.14150

 Excited State  23:      Singlet-A1    12.2093 eV  101.55 nm  f=0.0112  <S**2>=0.000
       9 -> 14         0.67452
       9 -> 17        -0.12842

 Excited State  24:      Singlet-B2    12.2546 eV  101.17 nm  f=0.1039  <S**2>=0.000
      10 -> 16         0.64537
      11 -> 20        -0.18441
      12 -> 19         0.15203

 Excited State  25:      Singlet-A2    12.3016 eV  100.79 nm  f=0.0000  <S**2>=0.000
      11 -> 19         0.69314

 Excited State  26:      Singlet-A2    12.4427 eV   99.64 nm  f=0.0000  <S**2>=0.000
      12 -> 23         0.67475

 Excited State  27:      Singlet-A2    12.5687 eV   98.65 nm  f=0.0000  <S**2>=0.000
       9 -> 16         0.69255

 Excited State  28:      Singlet-A1    12.5733 eV   98.61 nm  f=0.0014  <S**2>=0.000
      11 -> 21         0.27984
      12 -> 24         0.62813

 Excited State  29:      Singlet-A1    12.5796 eV   98.56 nm  f=0.0353  <S**2>=0.000
       9 -> 14        -0.11484
       9 -> 17        -0.29839
      11 -> 21         0.52823
      12 -> 24        -0.29273

 Excited State  30:      Singlet-B2    12.6417 eV   98.08 nm  f=0.0319  <S**2>=0.000
       9 -> 15        -0.12715
      10 -> 16         0.20368
      11 -> 20         0.63219
      11 -> 23        -0.15109

 Excited State  31:      Singlet-B1    12.7714 eV   97.08 nm  f=0.0025  <S**2>=0.000
      11 -> 22         0.69542

 Excited State  32:      Singlet-B1    13.0836 eV   94.76 nm  f=0.0005  <S**2>=0.000
      11 -> 24        -0.15543
      12 -> 25         0.64710
      12 -> 27         0.17537

 Excited State  33:      Singlet-A2    13.3317 eV   93.00 nm  f=0.0000  <S**2>=0.000
      10 -> 15        -0.12859
      10 -> 18         0.62991
      10 -> 21        -0.21313
      12 -> 23        -0.12421

 Excited State  34:      Singlet-B2    13.4047 eV   92.49 nm  f=0.0279  <S**2>=0.000
      11 -> 20         0.13997
      11 -> 23         0.66705

 Excited State  35:      Singlet-A1    13.4881 eV   91.92 nm  f=0.0547  <S**2>=0.000
       8 -> 13         0.20254
       8 -> 15        -0.16159
       9 -> 14         0.12938
       9 -> 17         0.43406
       9 -> 20        -0.13233
      11 -> 21         0.26459
      11 -> 25        -0.13023
      11 -> 27        -0.17277
      12 -> 22        -0.23274

 Excited State  36:      Singlet-B1    13.5380 eV   91.58 nm  f=0.0153  <S**2>=0.000
      11 -> 24         0.66986
      12 -> 25         0.12854
      12 -> 27         0.10851

 Excited State  37:      Singlet-B2    13.6595 eV   90.77 nm  f=0.0205  <S**2>=0.000
       9 -> 18         0.67825
      11 -> 23        -0.10788

 Excited State  38:      Singlet-A1    14.0300 eV   88.37 nm  f=0.0001  <S**2>=0.000
       8 -> 13         0.56228
       8 -> 15         0.10031
       9 -> 17        -0.13926
      10 -> 19        -0.17943
      11 -> 25        -0.28428
      12 -> 22         0.10839

 Excited State  39:      Singlet-B1    14.0552 eV   88.21 nm  f=0.0289  <S**2>=0.000
       7 -> 15         0.10034
      10 -> 20        -0.25016
      12 -> 25        -0.20657
      12 -> 27         0.59109

 Excited State  40:      Singlet-A1    14.1449 eV   87.65 nm  f=0.0006  <S**2>=0.000
       8 -> 13         0.18555
       8 -> 15         0.12855
      10 -> 19        -0.34709
      11 -> 21         0.11220
      11 -> 25         0.52553

 Excited State  41:      Singlet-B2    14.2349 eV   87.10 nm  f=0.0439  <S**2>=0.000
       8 -> 17         0.13365
      10 -> 22         0.20064
      10 -> 24        -0.15880
      12 -> 26         0.62602

 Excited State  42:      Singlet-A2    14.3360 eV   86.48 nm  f=0.0000  <S**2>=0.000
       7 -> 14         0.16698
      10 -> 15        -0.14860
      10 -> 18         0.20126
      10 -> 21         0.58422
      10 -> 25        -0.11795
      12 -> 28         0.17511

 Excited State  43:      Singlet-B2    14.3385 eV   86.47 nm  f=0.1234  <S**2>=0.000
       8 -> 14         0.53173
       8 -> 17        -0.39035
       9 -> 21        -0.10231
      12 -> 26         0.14313

 Excited State  44:      Singlet-A1    14.4209 eV   85.98 nm  f=0.1689  <S**2>=0.000
       8 -> 15         0.60088
       9 -> 17         0.14193
       9 -> 20         0.20082
      10 -> 19         0.12325
      11 -> 27        -0.14188

 Excited State  45:      Singlet-A1    14.4821 eV   85.61 nm  f=0.1460  <S**2>=0.000
       8 -> 13         0.27885
       8 -> 15        -0.10802
       9 -> 20         0.26271
      10 -> 19         0.45982
      11 -> 25         0.29456
      12 -> 29         0.10259

 Excited State  46:      Singlet-B1    14.5526 eV   85.20 nm  f=0.0000  <S**2>=0.000
       7 -> 15        -0.13499
       9 -> 19        -0.19032
      10 -> 17         0.11949
      10 -> 20         0.58479
      12 -> 27         0.24096

 Excited State  47:      Singlet-A2    14.6890 eV   84.41 nm  f=0.0000  <S**2>=0.000
       7 -> 17        -0.15558
      10 -> 21        -0.18288
      12 -> 28         0.61885
      12 -> 37        -0.10604

 Excited State  48:      Singlet-B1    14.7037 eV   84.32 nm  f=0.1903  <S**2>=0.000
       7 -> 13        -0.13861
       8 -> 16        -0.33609
       9 -> 19         0.54615
      10 -> 20         0.18637
      12 -> 27         0.11260

 Excited State  49:      Singlet-B2    14.7788 eV   83.89 nm  f=0.0804  <S**2>=0.000
       8 -> 14        -0.23999
       8 -> 17        -0.40408
       8 -> 20         0.10195
       9 -> 21         0.45700
      10 -> 24         0.11777
      12 -> 26         0.12928

 Excited State  50:      Singlet-B1    14.7877 eV   83.84 nm  f=0.1160  <S**2>=0.000
       7 -> 13         0.64240
       9 -> 19         0.21473

 Excited State  51:      Singlet-B2    14.9197 eV   83.10 nm  f=0.0204  <S**2>=0.000
       9 -> 21         0.13749
      10 -> 22         0.64818
      12 -> 26        -0.20086

 Excited State  52:      Singlet-A1    14.9429 eV   82.97 nm  f=0.0013  <S**2>=0.000
       7 -> 16         0.10811
       8 -> 15        -0.13101
       9 -> 17         0.16000
       9 -> 20         0.55068
      10 -> 19        -0.28417
      11 -> 27         0.14610

 Excited State  53:      Singlet-B2    15.0074 eV   82.62 nm  f=0.0005  <S**2>=0.000
       8 -> 14         0.35747
       8 -> 17         0.32198
       8 -> 20        -0.10450
       9 -> 21         0.47025

 Excited State  54:      Singlet-B1    15.0470 eV   82.40 nm  f=0.0031  <S**2>=0.000
       7 -> 13        -0.15316
       8 -> 16         0.56990
       9 -> 19         0.31931
      10 -> 23         0.17454

 Excited State  55:      Singlet-A2    15.0975 eV   82.12 nm  f=0.0000  <S**2>=0.000
       9 -> 22         0.68558
      12 -> 28         0.10892

 Excited State  56:      Singlet-A1    15.1932 eV   81.61 nm  f=0.0718  <S**2>=0.000
      11 -> 27        -0.31264
      12 -> 29         0.60758

 Excited State  57:      Singlet-A2    15.2734 eV   81.18 nm  f=0.0000  <S**2>=0.000
       7 -> 14        -0.37824
       7 -> 17         0.50977
       7 -> 20        -0.12962
      10 -> 21         0.12922
      10 -> 25        -0.15278
      12 -> 28         0.12644

 Excited State  58:      Singlet-B1    15.3340 eV   80.86 nm  f=0.0700  <S**2>=0.000
       7 -> 15         0.62638
       7 -> 18         0.13791
      10 -> 20         0.13741
      12 -> 30        -0.17752

 Excited State  59:      Singlet-A2    15.3780 eV   80.62 nm  f=0.0000  <S**2>=0.000
      11 -> 26         0.68999

 Excited State  60:      Singlet-B1    15.4806 eV   80.09 nm  f=0.3682  <S**2>=0.000
       8 -> 16        -0.14667
      10 -> 23         0.61775
      12 -> 30         0.23638

 Excited State  61:      Singlet-B2    15.5509 eV   79.73 nm  f=0.3182  <S**2>=0.000
       9 -> 21        -0.12934
       9 -> 25         0.13959
      10 -> 24         0.64429
      12 -> 26         0.11232

 Excited State  62:      Singlet-A2    15.7004 eV   78.97 nm  f=0.0000  <S**2>=0.000
       7 -> 14         0.52331
       7 -> 17         0.32827
      10 -> 21        -0.12521
      10 -> 25        -0.14968
      12 -> 28         0.10246
      12 -> 31         0.19827

 Excited State  63:      Singlet-A1    15.7262 eV   78.84 nm  f=0.1290  <S**2>=0.000
       7 -> 16         0.12333
       8 -> 15        -0.13055
       8 -> 18         0.30454
       9 -> 23         0.42476
      11 -> 27        -0.31483
      12 -> 29        -0.21578

 Excited State  64:      Singlet-B1    15.7887 eV   78.53 nm  f=0.0927  <S**2>=0.000
       7 -> 15         0.16771
      10 -> 23        -0.21912
      12 -> 30         0.62946

 Excited State  65:      Singlet-A1    15.9231 eV   77.86 nm  f=0.1053  <S**2>=0.000
       7 -> 16        -0.29673
       8 -> 18        -0.15833
       9 -> 23         0.51571
      11 -> 27         0.22797
      12 -> 29         0.12866

 Excited State  66:      Singlet-B2    15.9256 eV   77.85 nm  f=0.0671  <S**2>=0.000
      11 -> 28         0.66976

 Excited State  67:      Singlet-A2    15.9386 eV   77.79 nm  f=0.0000  <S**2>=0.000
       7 -> 14         0.12500
       9 -> 24         0.54796
      10 -> 21        -0.11540
      10 -> 27        -0.13453
      12 -> 31        -0.36095

 Excited State  68:      Singlet-A2    16.0385 eV   77.30 nm  f=0.0000  <S**2>=0.000
       9 -> 24         0.41782
      10 -> 25         0.19338
      10 -> 27         0.12386
      12 -> 31         0.49507

 Excited State  69:      Singlet-A1    16.1209 eV   76.91 nm  f=0.1433  <S**2>=0.000
       7 -> 16         0.40818
       8 -> 18         0.28613
       8 -> 21        -0.19205
       9 -> 20        -0.16274
      11 -> 27         0.31979
      11 -> 30        -0.14674

 Excited State  70:      Singlet-A1    16.2524 eV   76.29 nm  f=0.0022  <S**2>=0.000
       7 -> 16        -0.38821
       8 -> 18         0.48260
       9 -> 23        -0.15259
      12 -> 32         0.23281

 Excited State  71:      Singlet-A2    16.2644 eV   76.23 nm  f=0.0000  <S**2>=0.000
       7 -> 14         0.10735
       7 -> 17         0.21744
      10 -> 25         0.59346
      10 -> 27         0.11542
      12 -> 31        -0.21306

 Excited State  72:      Singlet-B1    16.2807 eV   76.15 nm  f=0.0233  <S**2>=0.000
      11 -> 29         0.69216

 Excited State  73:      Singlet-A1    16.4435 eV   75.40 nm  f=0.0327  <S**2>=0.000
       7 -> 16         0.15375
       8 -> 18        -0.12108
      11 -> 30         0.15819
      12 -> 29        -0.10378
      12 -> 32         0.61982

 Excited State  74:      Singlet-B2    16.6032 eV   74.67 nm  f=0.3017  <S**2>=0.000
       9 -> 25         0.59732
       9 -> 27         0.18444
      10 -> 24        -0.10311
      11 -> 31        -0.21212

 Excited State  75:      Singlet-B1    16.6415 eV   74.50 nm  f=0.1715  <S**2>=0.000
      12 -> 33         0.68893

 Excited State  76:      Singlet-A1    16.7119 eV   74.19 nm  f=0.0975  <S**2>=0.000
      11 -> 27         0.14156
      11 -> 30         0.65227
      12 -> 32        -0.12020

 Excited State  77:      Singlet-B2    16.8763 eV   73.47 nm  f=0.0117  <S**2>=0.000
       8 -> 20         0.47249
       9 -> 25         0.19741
      11 -> 31         0.42030

 Excited State  78:      Singlet-A2    17.0192 eV   72.85 nm  f=0.0000  <S**2>=0.000
       6 -> 16         0.11360
       8 -> 19         0.67891

 Excited State  79:      Singlet-B1    17.0907 eV   72.54 nm  f=0.0685  <S**2>=0.000
       7 -> 15        -0.11750
       7 -> 18         0.63781
       7 -> 21        -0.10888
      12 -> 36        -0.11231

 Excited State  80:      Singlet-A1    17.2040 eV   72.07 nm  f=0.2157  <S**2>=0.000
       7 -> 22        -0.14561
      10 -> 26         0.65560

 Excited State  81:      Singlet-A2    17.2279 eV   71.97 nm  f=0.0000  <S**2>=0.000
       7 -> 20         0.17438
      10 -> 25        -0.15889
      10 -> 27         0.62545
      12 -> 31        -0.14360

 Excited State  82:      Singlet-B2    17.3347 eV   71.52 nm  f=0.0028  <S**2>=0.000
       7 -> 19        -0.14954
       8 -> 17         0.12624
       8 -> 20         0.44259
      11 -> 31        -0.43689
      12 -> 34         0.18210

 Excited State  83:      Singlet-B1    17.3972 eV   71.27 nm  f=0.0004  <S**2>=0.000
       8 -> 22         0.25966
      11 -> 32         0.63478

 Excited State  84:      Singlet-A1    17.4092 eV   71.22 nm  f=0.0024  <S**2>=0.000
       7 -> 16         0.10338
       8 -> 21         0.60411
       9 -> 28         0.13578
      10 -> 26         0.12396
      11 -> 33         0.19024

 Excited State  85:      Singlet-B2    17.4993 eV   70.85 nm  f=0.0945  <S**2>=0.000
       8 -> 20        -0.12075
      11 -> 31         0.13529
      12 -> 34         0.66715

 Excited State  86:      Singlet-B1    17.5445 eV   70.67 nm  f=0.0685  <S**2>=0.000
       8 -> 22         0.60217
       9 -> 26         0.10124
      11 -> 32        -0.23741
      12 -> 36         0.16420

 Excited State  87:      Singlet-B2    17.5535 eV   70.63 nm  f=0.0075  <S**2>=0.000
       7 -> 19         0.12932
       8 -> 20         0.10297
       9 -> 25        -0.20479
       9 -> 27         0.60429
      10 -> 29        -0.10075

 Excited State  88:      Singlet-A2    17.6541 eV   70.23 nm  f=0.0000  <S**2>=0.000
      10 -> 30        -0.18270
      12 -> 28         0.11838
      12 -> 35         0.53003
      12 -> 37         0.37528

 Excited State  89:      Singlet-B1    17.7268 eV   69.94 nm  f=0.0097  <S**2>=0.000
       7 -> 21         0.21589
       8 -> 22        -0.11107
       8 -> 24        -0.22525
       9 -> 26         0.47327
      10 -> 28        -0.32420
      10 -> 31         0.14981
      12 -> 36         0.12178

 Excited State  90:      Singlet-B1    17.7930 eV   69.68 nm  f=0.0031  <S**2>=0.000
       7 -> 21        -0.21215
       8 -> 22        -0.15971
       9 -> 26         0.25565
      10 -> 28         0.40145
      11 -> 32         0.10555
      12 -> 36         0.41184

 Excited State  91:      Singlet-A1    17.7944 eV   69.68 nm  f=0.1082  <S**2>=0.000
       8 -> 21        -0.16658
      11 -> 33         0.65767

 Excited State  92:      Singlet-B1    17.8849 eV   69.32 nm  f=0.0804  <S**2>=0.000
       7 -> 18         0.11320
       8 -> 24         0.10186
       9 -> 26        -0.34012
      10 -> 28        -0.28599
      12 -> 36         0.49095
      12 -> 39         0.11060

 Excited State  93:      Singlet-B2    18.0497 eV   68.69 nm  f=0.0079  <S**2>=0.000
       6 -> 13         0.50484
       7 -> 19        -0.40247
       8 -> 23         0.13352
       9 -> 27         0.15099

 Excited State  94:      Singlet-A2    18.1079 eV   68.47 nm  f=0.0000  <S**2>=0.000
      10 -> 30         0.10140
      12 -> 35        -0.37990
      12 -> 37         0.55668

 Excited State  95:      Singlet-B2    18.1386 eV   68.35 nm  f=0.0035  <S**2>=0.000
       6 -> 13        -0.28578
       7 -> 19        -0.33966
       8 -> 23        -0.14314
      10 -> 29         0.38906
      11 -> 31         0.11491
      11 -> 35         0.20029
      11 -> 37         0.12000

 Excited State  96:      Singlet-B1    18.1804 eV   68.20 nm  f=0.0010  <S**2>=0.000
       7 -> 18         0.13759
       7 -> 21         0.48257
       8 -> 24        -0.17568
       9 -> 26        -0.15754
      10 -> 28         0.32233
      10 -> 31         0.21431

 Excited State  97:      Singlet-B2    18.2067 eV   68.10 nm  f=0.0749  <S**2>=0.000
       7 -> 19         0.28834
       8 -> 23         0.44923
      10 -> 29         0.36782

 Excited State  98:      Singlet-A2    18.3044 eV   67.73 nm  f=0.0000  <S**2>=0.000
       7 -> 17         0.16632
       7 -> 20         0.62394
      10 -> 27        -0.19551
      10 -> 30         0.11274

 Excited State  99:      Singlet-B2    18.3134 eV   67.70 nm  f=0.0129  <S**2>=0.000
       6 -> 13        -0.26094
       7 -> 19        -0.11279
       8 -> 23         0.39830
      10 -> 29        -0.38315
      11 -> 35         0.22299
      11 -> 37         0.12970

 Excited State 100:      Singlet-A2    18.4136 eV   67.33 nm  f=0.0000  <S**2>=0.000
      11 -> 34         0.67703
      11 -> 38         0.11347

 Excited State 101:      Singlet-A1    18.4629 eV   67.15 nm  f=0.1137  <S**2>=0.000
       6 -> 14        -0.17895
       7 -> 22        -0.40373
       9 -> 28         0.48819
      12 -> 44         0.11116

 Excited State 102:      Singlet-B1    18.4800 eV   67.09 nm  f=0.1295  <S**2>=0.000
       7 -> 21         0.25177
       8 -> 24         0.60717
       9 -> 26         0.15815

 Excited State 103:      Singlet-B2    18.5364 eV   66.89 nm  f=0.0451  <S**2>=0.000
       6 -> 15        -0.16099
       9 -> 30         0.11161
      11 -> 35        -0.12926
      11 -> 37        -0.15250
      12 -> 38         0.62199

 Excited State 104:      Singlet-A2    18.5478 eV   66.85 nm  f=0.0000  <S**2>=0.000
       6 -> 16         0.11019
       7 -> 23        -0.11493
       9 -> 29         0.21082
      10 -> 30         0.59530
      12 -> 35         0.21076

 Excited State 105:      Singlet-B2    18.5768 eV   66.74 nm  f=0.0017  <S**2>=0.000
       6 -> 13         0.15318
       6 -> 15         0.56305
       6 -> 18         0.13844
       9 -> 30        -0.20840
      12 -> 38         0.20085

 Excited State 106:      Singlet-A1    18.6567 eV   66.46 nm  f=0.0001  <S**2>=0.000
       5 -> 13        -0.25290
       6 -> 14         0.53750
       6 -> 17        -0.20397

 The electronic state is 1-A1.
 Alpha  occ. eigenvalues --  -19.28101 -10.35472 -10.35443  -1.18278  -0.76802
 Alpha  occ. eigenvalues --   -0.73000  -0.61182  -0.57840  -0.49343  -0.47281
 Alpha  occ. eigenvalues --   -0.40611  -0.36538
 Alpha virt. eigenvalues --    0.09467   0.11339   0.13180   0.14129   0.16318
 Alpha virt. eigenvalues --    0.17899   0.21312   0.22065   0.22499   0.23706
 Alpha virt. eigenvalues --    0.26248   0.27034   0.29762   0.33140   0.35404

 Mulliken charges:
               1
     1  C    0.535490
     2  C    0.535490
     3  O   -0.642681
     4  H   -0.107075
     5  H   -0.107075
     6  H   -0.107075
     7  H   -0.107075
 Sum of Mulliken charges =  -0.00000

 Dipole moment (field-independent basis, Debye):
    X=             -0.0000    Y=              0.0000    Z=             -1.9677  Tot=              1.9677
 Quadrupole moment (field-independent basis, Debye-Ang):
   XX=            -17.4135   YY=            -16.3729   ZZ=            -20.8797
   XY=              0.0000   XZ=             -0.0000   YZ=             -0.0000

 Normal termination of Gaussian 16 at Mon Mar 21 15:54:01 2022.
