 Gaussian 16, Revision C.01,
 Gaussian 16:  EM64L-G16RevC.01  3-Jul-2019

 ----------------------------------------------------------------------
 #P TD(Nstates=10000) wB97XD/Gen SCF(maxcycles=100) Int(Grid=ultrafine)
 ----------------------------------------------------------------------

 ---------------------
 xGDB7_00001_tier4.com
 ---------------------
 Symbolic Z-matrix:
 Charge =  0 Multiplicity = 1

                         Standard orientation:
 ---------------------------------------------------------------------
 Center     Atomic      Atomic             Coordinates (Angstroms)
 Number     Number       Type             X           Y           Z
 ---------------------------------------------------------------------
      1          6           0        0.000000    0.865978    0.000000
      2          6           0        0.749967   -0.432983    0.000000
      3          6           0       -0.749954   -0.432999    0.000000
      4          1           0       -0.000033    1.451806   -0.909176
      5          1           0       -0.000033    1.451806    0.909176
      6          1           0        1.257295   -0.725894    0.909177
      7          1           0        1.257295   -0.725894   -0.909177
      8          1           0       -1.257302   -0.725899    0.909179
      9          1           0       -1.257302   -0.725899   -0.909179
 ---------------------------------------------------------------------

 SCF Done:  E(RwB97XD) =  -117.779846496     A.U. after   11 cycles

 Excitation energies and oscillator strengths:

 Excited State   1:      Singlet-A'     8.5343 eV  145.28 nm  f=0.0000  <S**2>=0.000
      12 -> 13         0.68954
 This state for optimization and/or second-order correction.
 Total Energy, E(TD-HF/TD-DFT) =  -117.466216583
 Copying the excited state density for this state as the 1-particle RhoCI density.

 Excited State   2:      Singlet-A'     8.5345 eV  145.27 nm  f=0.0000  <S**2>=0.000
      11 -> 13         0.68953

 Excited State   3:      Singlet-A'     9.1690 eV  135.22 nm  f=0.0000  <S**2>=0.000
      11 -> 14         0.47179
      11 -> 15        -0.14897
      12 -> 14         0.14931
      12 -> 15         0.47228

 Excited State   4:      Singlet-A'     9.2555 eV  133.96 nm  f=0.0000  <S**2>=0.000
      11 -> 14        -0.14801
      11 -> 15        -0.46724
      12 -> 14         0.47052
      12 -> 15        -0.14828

 Excited State   5:      Singlet-A'     9.2900 eV  133.46 nm  f=0.1177  <S**2>=0.000
      11 -> 14         0.35845
      11 -> 15         0.33147
      12 -> 14         0.32918
      12 -> 15        -0.35758

 Excited State   6:      Singlet-A'     9.2900 eV  133.46 nm  f=0.1176  <S**2>=0.000
      11 -> 14        -0.33027
      11 -> 15         0.35918
      12 -> 14         0.35685
      12 -> 15         0.33038

 Excited State   7:      Singlet-A"     9.3386 eV  132.77 nm  f=0.0000  <S**2>=0.000
      12 -> 16         0.69684

 Excited State   8:      Singlet-A"     9.3388 eV  132.76 nm  f=0.0000  <S**2>=0.000
      11 -> 16         0.69684

 Excited State   9:      Singlet-A"    10.2420 eV  121.06 nm  f=0.0000  <S**2>=0.000
       9 -> 15        -0.17282
      10 -> 13         0.64896
      10 -> 14         0.17283

 Excited State  10:      Singlet-A"    10.2421 eV  121.05 nm  f=0.0000  <S**2>=0.000
       9 -> 13         0.64895
       9 -> 14        -0.17284
      10 -> 15        -0.17286

 Excited State  11:      Singlet-A'    10.6259 eV  116.68 nm  f=0.0158  <S**2>=0.000
      11 -> 18        -0.11338
      12 -> 13        -0.10451
      12 -> 17         0.67627

 Excited State  12:      Singlet-A'    10.6260 eV  116.68 nm  f=0.0158  <S**2>=0.000
      11 -> 13        -0.10451
      11 -> 17         0.67626
      12 -> 18         0.11346

 Excited State  13:      Singlet-A"    10.9287 eV  113.45 nm  f=0.2306  <S**2>=0.000
       9 -> 14        -0.46935
       9 -> 15         0.14280
      10 -> 14         0.14285
      10 -> 15         0.46940

 Excited State  14:      Singlet-A'    11.1156 eV  111.54 nm  f=0.3073  <S**2>=0.000
      10 -> 16         0.21648
      11 -> 17        -0.10581
      12 -> 18         0.62560

 Excited State  15:      Singlet-A'    11.1158 eV  111.54 nm  f=0.3073  <S**2>=0.000
       9 -> 16        -0.21651
      11 -> 18         0.62560
      12 -> 17         0.10573

 Excited State  16:      Singlet-A"    11.1787 eV  110.91 nm  f=0.0000  <S**2>=0.000
       9 -> 13        -0.13618
       9 -> 14        -0.28533
       9 -> 15        -0.34661
       9 -> 17        -0.10288
      10 -> 13        -0.17925
      10 -> 14         0.34798
      10 -> 15        -0.28576
      10 -> 17        -0.13545

 Excited State  17:      Singlet-A"    11.1787 eV  110.91 nm  f=0.0000  <S**2>=0.000
       9 -> 13         0.17928
       9 -> 14         0.34747
       9 -> 15        -0.28508
       9 -> 17         0.13544
      10 -> 13        -0.13616
      10 -> 14         0.28601
      10 -> 15         0.34710
      10 -> 17        -0.10288

 Excited State  18:      Singlet-A"    11.2096 eV  110.61 nm  f=0.0000  <S**2>=0.000
       9 -> 14         0.13898
       9 -> 15         0.45732
       9 -> 21         0.12208
      10 -> 14         0.45568
      10 -> 15        -0.13884
      10 -> 22        -0.12193

 Excited State  19:      Singlet-A'    11.4666 eV  108.13 nm  f=0.0623  <S**2>=0.000
      10 -> 16         0.65590
      12 -> 18        -0.22026

 Excited State  20:      Singlet-A'    11.4667 eV  108.13 nm  f=0.0623  <S**2>=0.000
       9 -> 16         0.65589
      11 -> 18         0.22028

 Excited State  21:      Singlet-A"    11.7232 eV  105.76 nm  f=0.0000  <S**2>=0.000
      11 -> 19        -0.48966
      12 -> 20         0.49012

 Excited State  22:      Singlet-A"    11.8661 eV  104.49 nm  f=0.0000  <S**2>=0.000
      11 -> 19         0.47914
      11 -> 20        -0.10417
      12 -> 19         0.10452
      12 -> 20         0.47869

 Excited State  23:      Singlet-A"    11.8661 eV  104.49 nm  f=0.0000  <S**2>=0.000
      11 -> 19        -0.10440
      11 -> 20        -0.47799
      12 -> 19         0.47984
      12 -> 20        -0.10430

 Excited State  24:      Singlet-A"    11.9289 eV  103.94 nm  f=0.0113  <S**2>=0.000
      11 -> 20         0.48727
      12 -> 19         0.48537

 Excited State  25:      Singlet-A'    12.2005 eV  101.62 nm  f=0.0215  <S**2>=0.000
      11 -> 21        -0.44134
      11 -> 22         0.17701
      12 -> 21         0.17744
      12 -> 22         0.44149

 Excited State  26:      Singlet-A'    12.2005 eV  101.62 nm  f=0.0215  <S**2>=0.000
      11 -> 21         0.17719
      11 -> 22         0.44082
      12 -> 21         0.44201
      12 -> 22        -0.17727

 Excited State  27:      Singlet-A'    12.2874 eV  100.90 nm  f=0.0000  <S**2>=0.000
      11 -> 22         0.46551
      11 -> 23        -0.15645
      12 -> 21        -0.46422
      12 -> 24        -0.15620

 Excited State  28:      Singlet-A"    12.3245 eV  100.60 nm  f=0.0000  <S**2>=0.000
       9 -> 17        -0.11380
       9 -> 18        -0.29499
      10 -> 18         0.60883

 Excited State  29:      Singlet-A"    12.3246 eV  100.60 nm  f=0.0000  <S**2>=0.000
       9 -> 18         0.60882
      10 -> 17         0.11387
      10 -> 18         0.29498

 Excited State  30:      Singlet-A"    12.5198 eV   99.03 nm  f=0.0000  <S**2>=0.000
       9 -> 18        -0.12286
      10 -> 13        -0.13020
      10 -> 17         0.59850
      11 -> 25         0.26070

 Excited State  31:      Singlet-A"    12.5198 eV   99.03 nm  f=0.0000  <S**2>=0.000
       9 -> 13        -0.13020
       9 -> 17         0.59846
      10 -> 18         0.12281
      12 -> 25         0.26083

 Excited State  32:      Singlet-A'    12.5262 eV   98.98 nm  f=0.0000  <S**2>=0.000
       7 -> 16        -0.13067
       9 -> 19         0.16781
      10 -> 20         0.16781
      11 -> 21         0.44209
      12 -> 22         0.44190

 Excited State  33:      Singlet-A'    12.8439 eV   96.53 nm  f=0.0000  <S**2>=0.000
      11 -> 22         0.17030
      11 -> 23         0.43173
      11 -> 24        -0.16298
      12 -> 21        -0.17032
      12 -> 23         0.16313
      12 -> 24         0.43201

 Excited State  34:      Singlet-A"    12.9550 eV   95.70 nm  f=0.0000  <S**2>=0.000
       9 -> 17        -0.26035
      12 -> 25         0.64491

 Excited State  35:      Singlet-A"    12.9551 eV   95.70 nm  f=0.0000  <S**2>=0.000
      10 -> 17        -0.26023
      11 -> 25         0.64496

 Excited State  36:      Singlet-A'    13.0451 eV   95.04 nm  f=0.0000  <S**2>=0.000
      11 -> 23        -0.16952
      11 -> 24        -0.44837
      12 -> 23         0.45192
      12 -> 24        -0.17038

 Excited State  37:      Singlet-A'    13.0760 eV   94.82 nm  f=0.0359  <S**2>=0.000
      11 -> 23         0.44655
      11 -> 24         0.16703
      12 -> 23         0.16517
      12 -> 24        -0.44564

 Excited State  38:      Singlet-A'    13.0760 eV   94.82 nm  f=0.0359  <S**2>=0.000
      11 -> 23        -0.16567
      11 -> 24         0.44757
      12 -> 23         0.44462
      12 -> 24         0.16654

 Excited State  39:      Singlet-A"    13.3073 eV   93.17 nm  f=0.0000  <S**2>=0.000
      11 -> 26        -0.44750
      11 -> 27        -0.19423
      12 -> 26        -0.19440
      12 -> 27         0.44856

 Excited State  40:      Singlet-A"    13.3073 eV   93.17 nm  f=0.0000  <S**2>=0.000
      11 -> 26        -0.19400
      11 -> 27         0.44766
      12 -> 26         0.44839
      12 -> 27         0.19463

 Excited State  41:      Singlet-A"    13.3533 eV   92.85 nm  f=0.0424  <S**2>=0.000
       7 -> 13         0.10543
       9 -> 23         0.11107
      10 -> 24        -0.11106
      11 -> 26         0.45687
      12 -> 27         0.45558

 Excited State  42:      Singlet-A'    13.4479 eV   92.20 nm  f=0.0000  <S**2>=0.000
       8 -> 13         0.65475
       9 -> 19        -0.16272
      10 -> 20        -0.16273

 Excited State  43:      Singlet-A"    13.4736 eV   92.02 nm  f=0.0000  <S**2>=0.000
      11 -> 27         0.47935
      12 -> 26        -0.47866

 Excited State  44:      Singlet-A'    13.6409 eV   90.89 nm  f=0.2154  <S**2>=0.000
       9 -> 19        -0.14642
      10 -> 20         0.14641
      12 -> 28         0.64525

 Excited State  45:      Singlet-A'    13.6411 eV   90.89 nm  f=0.2154  <S**2>=0.000
       9 -> 20         0.14647
      10 -> 19         0.14654
      11 -> 28         0.64522

 Excited State  46:      Singlet-A'    13.8879 eV   89.28 nm  f=0.0005  <S**2>=0.000
       9 -> 19        -0.45750
      10 -> 20         0.45755
      12 -> 28        -0.17583

 Excited State  47:      Singlet-A'    13.8879 eV   89.28 nm  f=0.0005  <S**2>=0.000
       9 -> 20         0.45712
      10 -> 19         0.45788
      11 -> 28        -0.17595

 Excited State  48:      Singlet-A'    13.9759 eV   88.71 nm  f=0.0000  <S**2>=0.000
       9 -> 20         0.46736
       9 -> 26         0.16198
      10 -> 19        -0.46658
      10 -> 27        -0.16200

 Excited State  49:      Singlet-A"    14.0032 eV   88.54 nm  f=0.0000  <S**2>=0.000
       7 -> 15         0.23350
       9 -> 21         0.43230
      10 -> 22         0.43258
      10 -> 28        -0.10692

 Excited State  50:      Singlet-A"    14.0032 eV   88.54 nm  f=0.0000  <S**2>=0.000
       7 -> 14        -0.23351
       9 -> 22        -0.43234
       9 -> 28        -0.10691
      10 -> 21         0.43254

 Excited State  51:      Singlet-A'    14.0462 eV   88.27 nm  f=0.2265  <S**2>=0.000
       8 -> 14         0.68789

 Excited State  52:      Singlet-A'    14.0462 eV   88.27 nm  f=0.2265  <S**2>=0.000
       8 -> 15         0.68789

 Excited State  53:      Singlet-A"    14.0544 eV   88.22 nm  f=0.0000  <S**2>=0.000
       9 -> 15        -0.10975
       9 -> 21         0.46607
      10 -> 14        -0.10972
      10 -> 22        -0.46580

 Excited State  54:      Singlet-A"    14.1877 eV   87.39 nm  f=0.0727  <S**2>=0.000
       7 -> 13        -0.19393
       8 -> 16         0.57425
       9 -> 22        -0.20265
       9 -> 23         0.12905
      10 -> 21        -0.20252
      10 -> 24        -0.12904

 Excited State  55:      Singlet-A'    14.2218 eV   87.18 nm  f=0.0000  <S**2>=0.000
       8 -> 13         0.20664
       8 -> 17         0.11340
       9 -> 19         0.42478
      10 -> 20         0.42472
      11 -> 21        -0.16615
      12 -> 22        -0.16613

 Excited State  56:      Singlet-A"    14.2711 eV   86.88 nm  f=0.1938  <S**2>=0.000
       7 -> 13         0.63432
       7 -> 17         0.11969
       8 -> 16         0.22180

 Excited State  57:      Singlet-A"    14.3435 eV   86.44 nm  f=0.0939  <S**2>=0.000
       7 -> 13        -0.14536
       8 -> 16         0.25691
       9 -> 22         0.44528
      10 -> 21         0.44515

 Excited State  58:      Singlet-A"    14.9155 eV   83.12 nm  f=0.0000  <S**2>=0.000
       9 -> 24        -0.47805
      10 -> 23         0.47832

 Excited State  59:      Singlet-A"    14.9155 eV   83.12 nm  f=0.0000  <S**2>=0.000
       9 -> 23         0.47813
      10 -> 24         0.47824

 Excited State  60:      Singlet-A'    14.9494 eV   82.94 nm  f=0.0000  <S**2>=0.000
       8 -> 18         0.51289
       9 -> 26         0.10969
      10 -> 27        -0.10934
      11 -> 29        -0.21915
      11 -> 30        -0.21138
      12 -> 29        -0.21241
      12 -> 30         0.22006

 Excited State  61:      Singlet-A'    14.9548 eV   82.91 nm  f=0.1098  <S**2>=0.000
      10 -> 25         0.63509
      11 -> 29         0.16028
      12 -> 30         0.15885

 Excited State  62:      Singlet-A'    14.9549 eV   82.91 nm  f=0.1098  <S**2>=0.000
       9 -> 25         0.63509
      11 -> 30         0.15984
      12 -> 29        -0.15932

 Excited State  63:      Singlet-A'    15.0238 eV   82.53 nm  f=0.0000  <S**2>=0.000
       9 -> 20        -0.15866
       9 -> 26         0.43873
      10 -> 19         0.15863
      10 -> 27        -0.43873

 Excited State  64:      Singlet-A"    15.0907 eV   82.16 nm  f=0.9952  <S**2>=0.000
       8 -> 16        -0.19026
       9 -> 23         0.42259
       9 -> 24        -0.15448
      10 -> 23        -0.15435
      10 -> 24        -0.42248
      11 -> 26        -0.11415
      12 -> 27        -0.11414

 Excited State  65:      Singlet-A"    15.1138 eV   82.03 nm  f=0.0000  <S**2>=0.000
       7 -> 14         0.63416
       9 -> 22        -0.16310
       9 -> 28        -0.15044
      10 -> 21         0.16307

 Excited State  66:      Singlet-A"    15.1138 eV   82.03 nm  f=0.0000  <S**2>=0.000
       7 -> 15         0.63416
       9 -> 21        -0.16306
      10 -> 22        -0.16308
      10 -> 28         0.15049

 Excited State  67:      Singlet-A"    15.1784 eV   81.68 nm  f=0.0000  <S**2>=0.000
       9 -> 23         0.16676
       9 -> 24         0.45641
      10 -> 23         0.45615
      10 -> 24        -0.16673

 Excited State  68:      Singlet-A'    15.2157 eV   81.48 nm  f=0.0000  <S**2>=0.000
       7 -> 16         0.47154
       8 -> 17        -0.42308
       9 -> 27        -0.15629
      10 -> 26        -0.15651

 Excited State  69:      Singlet-A'    15.3217 eV   80.92 nm  f=0.4438  <S**2>=0.000
       9 -> 26        -0.23056
       9 -> 27        -0.41705
      10 -> 26         0.41716
      10 -> 27        -0.23057

 Excited State  70:      Singlet-A'    15.3217 eV   80.92 nm  f=0.4438  <S**2>=0.000
       9 -> 26         0.41712
       9 -> 27        -0.23055
      10 -> 26         0.23057
      10 -> 27         0.41709

 Excited State  71:      Singlet-A"    15.4535 eV   80.23 nm  f=0.0000  <S**2>=0.000
       7 -> 15        -0.10224
       9 -> 21         0.10829
      10 -> 22         0.10828
      10 -> 28         0.66000

 Excited State  72:      Singlet-A"    15.4536 eV   80.23 nm  f=0.0000  <S**2>=0.000
       7 -> 14         0.10220
       9 -> 22        -0.10827
       9 -> 28         0.66001
      10 -> 21         0.10826

 Excited State  73:      Singlet-A'    15.5286 eV   79.84 nm  f=0.0000  <S**2>=0.000
       8 -> 18         0.47096
      11 -> 29         0.25351
      11 -> 30         0.24454
      12 -> 29         0.24471
      12 -> 30        -0.25355

 Excited State  74:      Singlet-A'    15.5329 eV   79.82 nm  f=0.0000  <S**2>=0.000
       8 -> 17        -0.29026
       9 -> 27         0.41172
      10 -> 26         0.41155

 Excited State  75:      Singlet-A'    15.5945 eV   79.50 nm  f=0.0000  <S**2>=0.000
       8 -> 17        -0.28042
      11 -> 29        -0.30775
      11 -> 30         0.31884
      12 -> 29         0.31919
      12 -> 30         0.30787

 Excited State  76:      Singlet-A'    15.7663 eV   78.64 nm  f=0.3616  <S**2>=0.000
      10 -> 25        -0.20238
      11 -> 29         0.26285
      11 -> 30         0.33936
      11 -> 31         0.13712
      12 -> 29        -0.33908
      12 -> 30         0.26284
      12 -> 33         0.12961

 Excited State  77:      Singlet-A'    15.7663 eV   78.64 nm  f=0.3616  <S**2>=0.000
       9 -> 25         0.20240
      11 -> 29         0.33930
      11 -> 30        -0.26298
      11 -> 33         0.12958
      12 -> 29         0.26269
      12 -> 30         0.33913
      12 -> 31        -0.13721

 Excited State  78:      Singlet-A'    15.8373 eV   78.29 nm  f=0.0000  <S**2>=0.000
       7 -> 16         0.47806
       8 -> 17         0.34125
       9 -> 27         0.20025
      10 -> 26         0.20022

 Excited State  79:      Singlet-A"    15.9794 eV   77.59 nm  f=0.0000  <S**2>=0.000
       7 -> 18         0.68323

 Excited State  80:      Singlet-A'    16.0819 eV   77.10 nm  f=0.0371  <S**2>=0.000
      11 -> 33         0.10425
      12 -> 31         0.66470

 Excited State  81:      Singlet-A'    16.0820 eV   77.09 nm  f=0.0370  <S**2>=0.000
      11 -> 31         0.66471
      12 -> 33        -0.10431

 Excited State  82:      Singlet-A"    16.4567 eV   75.34 nm  f=0.1151  <S**2>=0.000
       7 -> 13        -0.11861
       7 -> 17         0.66619
       8 -> 25         0.13421

 Excited State  83:      Singlet-A"    16.5156 eV   75.07 nm  f=0.0000  <S**2>=0.000
       5 -> 16        -0.17999
       8 -> 19         0.64019
      12 -> 34         0.17945

 Excited State  84:      Singlet-A"    16.5157 eV   75.07 nm  f=0.0000  <S**2>=0.000
       6 -> 16        -0.18001
       8 -> 20         0.64019
      11 -> 34         0.17940

 Excited State  85:      Singlet-A'    16.5361 eV   74.98 nm  f=0.0042  <S**2>=0.000
       5 -> 15         0.10634
       6 -> 13        -0.17969
       6 -> 14        -0.10634
       8 -> 21         0.36175
      12 -> 33         0.52225

 Excited State  86:      Singlet-A'    16.5363 eV   74.98 nm  f=0.0042  <S**2>=0.000
       5 -> 13         0.17966
       5 -> 14        -0.10636
       6 -> 15        -0.10636
       8 -> 22        -0.36178
      11 -> 33         0.52224

 Excited State  87:      Singlet-A"    16.9294 eV   73.24 nm  f=0.0000  <S**2>=0.000
       8 -> 19        -0.16936
      11 -> 32         0.15627
      12 -> 34         0.65446

 Excited State  88:      Singlet-A"    16.9296 eV   73.24 nm  f=0.0000  <S**2>=0.000
       8 -> 20        -0.16924
      11 -> 34         0.65436
      12 -> 32        -0.15674

 Excited State  89:      Singlet-A"    17.0398 eV   72.76 nm  f=0.0000  <S**2>=0.000
       8 -> 26         0.10141
      11 -> 34         0.14873
      12 -> 32         0.66597

 Excited State  90:      Singlet-A"    17.0400 eV   72.76 nm  f=0.0000  <S**2>=0.000
       8 -> 27        -0.10146
      11 -> 32         0.66608
      12 -> 34        -0.14826

 Excited State  91:      Singlet-A'    17.1180 eV   72.43 nm  f=0.0221  <S**2>=0.000
       6 -> 13         0.56139
       6 -> 17         0.11226
       8 -> 21         0.37389

 Excited State  92:      Singlet-A'    17.1181 eV   72.43 nm  f=0.0221  <S**2>=0.000
       5 -> 13         0.56135
       5 -> 17         0.11227
       8 -> 22         0.37392

 Excited State  93:      Singlet-A'    17.2548 eV   71.85 nm  f=0.0287  <S**2>=0.000
       5 -> 15         0.21106
       6 -> 13        -0.27377
       6 -> 14        -0.21111
       7 -> 20         0.32889
       8 -> 21         0.26015
       8 -> 24        -0.19392
      12 -> 33        -0.28402

 Excited State  94:      Singlet-A'    17.2548 eV   71.85 nm  f=0.0287  <S**2>=0.000
       5 -> 13        -0.27386
       5 -> 14         0.21107
       6 -> 15         0.21108
       7 -> 19         0.32894
       8 -> 22         0.26004
       8 -> 23         0.19395
      11 -> 33         0.28400

 Excited State  95:      Singlet-A"    17.2602 eV   71.83 nm  f=0.0993  <S**2>=0.000
       9 -> 29         0.35337
       9 -> 30         0.33353
      10 -> 29        -0.33408
      10 -> 30         0.35345

 Excited State  96:      Singlet-A"    17.3445 eV   71.48 nm  f=0.0000  <S**2>=0.000
       9 -> 29        -0.38411
       9 -> 30         0.24537
      10 -> 29         0.24534
      10 -> 30         0.38441
      10 -> 31         0.12344

 Excited State  97:      Singlet-A"    17.3445 eV   71.48 nm  f=0.0000  <S**2>=0.000
       9 -> 29         0.24559
       9 -> 30         0.38441
       9 -> 31        -0.12344
      10 -> 29         0.38412
      10 -> 30        -0.24513

 Excited State  98:      Singlet-A"    17.5703 eV   70.56 nm  f=0.0000  <S**2>=0.000
       7 -> 18        -0.12882
       9 -> 29        -0.33004
       9 -> 30         0.34943
      10 -> 29        -0.34928
      10 -> 30        -0.32992

 Excited State  99:      Singlet-A'    17.7435 eV   69.88 nm  f=0.0754  <S**2>=0.000
       7 -> 20         0.35655
       8 -> 21        -0.14742
       8 -> 24        -0.30849
      11 -> 37        -0.19080
      11 -> 38        -0.15597
      12 -> 33         0.20704
      12 -> 37         0.15631
      12 -> 38        -0.19103

 Excited State 100:      Singlet-A'    17.7435 eV   69.88 nm  f=0.0754  <S**2>=0.000
       7 -> 19         0.35677
       8 -> 22        -0.14732
       8 -> 23         0.30830
      11 -> 33        -0.20707
      11 -> 37         0.15618
      11 -> 38        -0.19082
      12 -> 37         0.19102
      12 -> 38         0.15613

 Excited State 101:      Singlet-A"    17.7628 eV   69.80 nm  f=0.0000  <S**2>=0.000
       6 -> 16         0.10382
       7 -> 21         0.51390
       8 -> 26         0.26944
       9 -> 30        -0.11802
       9 -> 33         0.24306
      10 -> 29        -0.11800

 Excited State 102:      Singlet-A"    17.7629 eV   69.80 nm  f=0.0000  <S**2>=0.000
       5 -> 16         0.10384
       7 -> 22         0.51389
       8 -> 27         0.26943
       9 -> 29         0.11798

 The electronic state is 1-A'.
 Alpha  occ. eigenvalues --  -10.29628 -10.29597 -10.29596  -0.94783  -0.68583
 Alpha  occ. eigenvalues --   -0.68582  -0.58545  -0.55365  -0.44544  -0.44543
 Alpha  occ. eigenvalues --   -0.37975  -0.37974
 Alpha virt. eigenvalues --    0.10004   0.11855   0.11855   0.14463   0.18198
 Alpha virt. eigenvalues --    0.20638   0.21992   0.21992   0.24622   0.24622
 Alpha virt. eigenvalues --    0.26985   0.26985   0.27527   0.28501   0.28501

 Mulliken charges:
               1
     1  C    0.386798
     2  C    0.386849
     3  C    0.386760
     4  H   -0.193413
     5  H   -0.193413
     6  H   -0.193398
     7  H   -0.193398
     8  H   -0.193392
     9  H   -0.193392
 Sum of Mulliken charges =   0.00000

 Dipole moment (field-independent basis, Debye):
    X=             -0.0000    Y=              0.0000    Z=             -0.0000  Tot=              0.0000
 Quadrupole moment (field-independent basis, Debye-Ang):
   XX=            -20.6165   YY=            -20.6165   ZZ=            -18.4323
   XY=             -0.0001   XZ=              0.0000   YZ=             -0.0000

 Normal termination of Gaussian 16 at Mon Mar 21 15:52:50 2022.
