 Gaussian 16, Revision C.01,
 Gaussian 16:  EM64L-G16RevC.01  3-Jul-2019

 ----------------------------------------------------------------------
 #P TD(Nstates=10000) wB97XD/Gen SCF(maxcycles=100) Int(Grid=ultrafine)
 ----------------------------------------------------------------------

 ---------------------
 xGDB7_00001_tier4.com
 ---------------------
 Symbolic Z-matrix:
 Charge =  0 Multiplicity = 1

                         Standard orientation:
 ---------------------------------------------------------------------
 Center     Atomic      Atomic             Coordinates (Angstroms)
 Number     Number       Type             X           Y           Z
 ---------------------------------------------------------------------
      1          6           0       -1.122844   -0.452320    0.000000
      2          6           0        0.000000    0.553997    0.000000
      3          9           0        1.225284   -0.098236    0.000000
      4          1           0       -2.083314    0.066805    0.000000
      5          1           0       -1.072796   -1.085651    0.886148
      6          1           0       -1.072796   -1.085651   -0.886148
      7          1           0       -0.030794    1.189278    0.888716
      8          1           0       -0.030794    1.189278   -0.888716
 ---------------------------------------------------------------------

 SCF Done:  E(RwB97XD) =  -178.887803128     A.U. after   13 cycles

 Excitation energies and oscillator strengths:

 Excited State   1:      Singlet-A"     9.3262 eV  132.94 nm  f=0.0053  <S**2>=0.000
      13 -> 14         0.66307
      13 -> 15         0.19277
 This state for optimization and/or second-order correction.
 Total Energy, E(TD-HF/TD-DFT) =  -178.545072971
 Copying the excited state density for this state as the 1-particle RhoCI density.

 Excited State   2:      Singlet-A'     9.6979 eV  127.85 nm  f=0.0107  <S**2>=0.000
      12 -> 14         0.65221
      12 -> 15         0.20018
      12 -> 16         0.14189

 Excited State   3:      Singlet-A"    10.1078 eV  122.66 nm  f=0.0135  <S**2>=0.000
      10 -> 14         0.14870
      13 -> 14        -0.18330
      13 -> 15         0.44327
      13 -> 16         0.44428
      13 -> 18        -0.11533
      13 -> 19        -0.11451

 Excited State   4:      Singlet-A'    10.3984 eV  119.23 nm  f=0.0203  <S**2>=0.000
      12 -> 14        -0.24111
      12 -> 15         0.43024
      12 -> 16         0.44647
      12 -> 18        -0.13586
      12 -> 19        -0.11494

 Excited State   5:      Singlet-A"    10.5614 eV  117.39 nm  f=0.1012  <S**2>=0.000
      10 -> 14        -0.13657
      13 -> 15        -0.45385
      13 -> 16         0.48326

 Excited State   6:      Singlet-A'    10.8481 eV  114.29 nm  f=0.0862  <S**2>=0.000
      11 -> 14        -0.28152
      12 -> 15         0.45826
      12 -> 16        -0.42807

 Excited State   7:      Singlet-A'    10.9474 eV  113.25 nm  f=0.1453  <S**2>=0.000
      11 -> 14         0.61128
      11 -> 15        -0.16158
      12 -> 15         0.20314
      12 -> 16        -0.20355

 Excited State   8:      Singlet-A'    11.0048 eV  112.66 nm  f=0.1106  <S**2>=0.000
      13 -> 17         0.69305

 Excited State   9:      Singlet-A"    11.2061 eV  110.64 nm  f=0.0253  <S**2>=0.000
      12 -> 17         0.68767

 Excited State  10:      Singlet-A"    11.2768 eV  109.95 nm  f=0.0145  <S**2>=0.000
      10 -> 14         0.62494
      13 -> 15        -0.16311
      13 -> 18         0.18713

 Excited State  11:      Singlet-A"    11.6947 eV  106.02 nm  f=0.0032  <S**2>=0.000
      10 -> 14        -0.13435
      10 -> 18        -0.11974
      13 -> 18         0.62946
      13 -> 19        -0.16116

 Excited State  12:      Singlet-A'    11.8584 eV  104.55 nm  f=0.0530  <S**2>=0.000
      11 -> 15         0.27659
      12 -> 16         0.11289
      12 -> 18         0.59565

 Excited State  13:      Singlet-A"    12.0228 eV  103.12 nm  f=0.0654  <S**2>=0.000
      10 -> 15         0.58451
      10 -> 16         0.13200
      10 -> 18        -0.10445
      13 -> 21         0.29691

 Excited State  14:      Singlet-A'    12.0401 eV  102.98 nm  f=0.0649  <S**2>=0.000
      11 -> 14         0.12777
      11 -> 15         0.54040
      12 -> 18        -0.27506
      12 -> 19         0.28366

 Excited State  15:      Singlet-A"    12.0995 eV  102.47 nm  f=0.0579  <S**2>=0.000
      10 -> 14        -0.11797
      13 -> 16         0.15527
      13 -> 19         0.64099

 Excited State  16:      Singlet-A'    12.1658 eV  101.91 nm  f=0.0223  <S**2>=0.000
       9 -> 14         0.14707
      11 -> 15        -0.25917
      12 -> 16         0.13331
      12 -> 19         0.58410

 Excited State  17:      Singlet-A"    12.2871 eV  100.91 nm  f=0.0046  <S**2>=0.000
      12 -> 20         0.68867

 Excited State  18:      Singlet-A'    12.2999 eV  100.80 nm  f=0.0035  <S**2>=0.000
      13 -> 20         0.66324

 Excited State  19:      Singlet-A"    12.5436 eV   98.84 nm  f=0.0002  <S**2>=0.000
      10 -> 16         0.55437
      10 -> 19        -0.10017
      11 -> 17         0.13501
      13 -> 21        -0.30766

 Excited State  20:      Singlet-A'    12.5929 eV   98.46 nm  f=0.1207  <S**2>=0.000
       9 -> 14        -0.11531
      10 -> 17        -0.15319
      11 -> 16         0.60595
      11 -> 19        -0.16944
      13 -> 20         0.10762
      13 -> 22         0.11877

 Excited State  21:      Singlet-A"    12.6379 eV   98.10 nm  f=0.0403  <S**2>=0.000
      11 -> 17         0.66303
      11 -> 22         0.15234
      13 -> 21         0.10431

 Excited State  22:      Singlet-A'    12.7217 eV   97.46 nm  f=0.0067  <S**2>=0.000
      10 -> 17         0.51724
      11 -> 16         0.14365
      11 -> 18        -0.25787
      11 -> 19        -0.10916
      13 -> 22        -0.30908

 Excited State  23:      Singlet-A'    12.8900 eV   96.19 nm  f=0.0378  <S**2>=0.000
       9 -> 14         0.22022
       9 -> 15         0.19438
      11 -> 18         0.13356
      12 -> 19        -0.11364
      12 -> 21         0.58073
      12 -> 23        -0.10335

 Excited State  24:      Singlet-A"    12.8991 eV   96.12 nm  f=0.0013  <S**2>=0.000
      10 -> 15        -0.32133
      10 -> 16         0.26895
      13 -> 21         0.50806
      13 -> 23        -0.15132

 Excited State  25:      Singlet-A'    13.0194 eV   95.23 nm  f=0.0347  <S**2>=0.000
       9 -> 14         0.55733
       9 -> 16         0.13956
      11 -> 18        -0.19879
      12 -> 19        -0.11985
      12 -> 21        -0.24101

 Excited State  26:      Singlet-A"    13.1334 eV   94.40 nm  f=0.0005  <S**2>=0.000
      10 -> 18        -0.33662
      10 -> 19        -0.26661
      13 -> 23         0.47449

 Excited State  27:      Singlet-A'    13.1784 eV   94.08 nm  f=0.2292  <S**2>=0.000
       9 -> 14         0.19011
      10 -> 17         0.22294
      11 -> 16         0.11660
      11 -> 18         0.51870
      12 -> 21        -0.12194
      12 -> 23         0.25352

 Excited State  28:      Singlet-A"    13.2954 eV   93.25 nm  f=0.0017  <S**2>=0.000
       9 -> 17        -0.14622
      10 -> 16         0.10779
      10 -> 18         0.23139
      10 -> 19        -0.14451
      11 -> 20        -0.20792
      12 -> 22         0.51776
      13 -> 23         0.19200

 Excited State  29:      Singlet-A"    13.3459 eV   92.90 nm  f=0.0019  <S**2>=0.000
       9 -> 17         0.12045
      10 -> 16         0.10798
      10 -> 18         0.38340
      10 -> 19        -0.12224
      11 -> 20        -0.29784
      12 -> 22        -0.38105
      13 -> 18         0.10314
      13 -> 23         0.12198

 Excited State  30:      Singlet-A'    13.4582 eV   92.13 nm  f=0.0056  <S**2>=0.000
      10 -> 17         0.33873
      13 -> 22         0.59305

 Excited State  31:      Singlet-A'    13.4868 eV   91.93 nm  f=0.0381  <S**2>=0.000
       9 -> 14         0.11646
       9 -> 15        -0.16951
       9 -> 16        -0.25370
      10 -> 20        -0.19218
      11 -> 18        -0.16821
      12 -> 21         0.17756
      12 -> 23         0.39819
      13 -> 24        -0.31515

 Excited State  32:      Singlet-A"    13.5341 eV   91.61 nm  f=0.0075  <S**2>=0.000
       8 -> 14        -0.13753
      10 -> 18         0.28424
      11 -> 20         0.46919
      13 -> 23         0.23987
      13 -> 25        -0.23616

 Excited State  33:      Singlet-A'    13.6421 eV   90.88 nm  f=0.0336  <S**2>=0.000
       9 -> 15         0.12992
       9 -> 16         0.13246
       9 -> 19        -0.10864
      10 -> 17        -0.10502
      10 -> 20         0.31170
      11 -> 16        -0.10980
      11 -> 18        -0.12733
      11 -> 19        -0.10302
      12 -> 23         0.41306
      12 -> 25        -0.10916
      13 -> 24         0.27182

 Excited State  34:      Singlet-A"    13.6995 eV   90.50 nm  f=0.0581  <S**2>=0.000
      10 -> 19         0.10412
      11 -> 20        -0.17538
      12 -> 22         0.14435
      12 -> 24         0.56536
      13 -> 25        -0.22148

 Excited State  35:      Singlet-A"    13.7751 eV   90.01 nm  f=0.0021  <S**2>=0.000
       8 -> 15         0.10841
      10 -> 19         0.46165
      10 -> 21        -0.24416
      10 -> 23         0.16112
      13 -> 23         0.21488
      13 -> 25         0.28133
      13 -> 26         0.16549

 Excited State  36:      Singlet-A'    13.7816 eV   89.96 nm  f=0.0131  <S**2>=0.000
       9 -> 15         0.15309
       9 -> 16         0.20612
      10 -> 20        -0.12339
      11 -> 16         0.11593
      11 -> 19         0.51845
      11 -> 21        -0.12502
      11 -> 23         0.14722
      12 -> 23         0.15751
      13 -> 24        -0.10305

 Excited State  37:      Singlet-A'    13.9151 eV   89.10 nm  f=0.1254  <S**2>=0.000
       7 -> 14         0.21689
       9 -> 15        -0.34251
      11 -> 19         0.22631
      11 -> 21         0.19572
      12 -> 25         0.10267
      13 -> 24         0.39734

 Excited State  38:      Singlet-A"    14.0630 eV   88.16 nm  f=0.0095  <S**2>=0.000
       8 -> 14         0.51256
       8 -> 15         0.16373
      10 -> 19         0.11769
      13 -> 25        -0.34962

 Excited State  39:      Singlet-A'    14.0658 eV   88.15 nm  f=0.0750  <S**2>=0.000
       7 -> 14         0.20422
       9 -> 15         0.46073
       9 -> 16        -0.20387
      10 -> 20        -0.26793
      11 -> 21         0.19707
      12 -> 21        -0.10582
      12 -> 25         0.15026

 Excited State  40:      Singlet-A"    14.1084 eV   87.88 nm  f=0.2560  <S**2>=0.000
       8 -> 14         0.28912
       8 -> 15         0.11183
      10 -> 18         0.13393
      10 -> 19        -0.24032
      10 -> 21        -0.17049
      11 -> 20         0.25819
      12 -> 24         0.31761
      13 -> 23        -0.10550
      13 -> 25         0.27592

 Excited State  41:      Singlet-A'    14.1126 eV   87.85 nm  f=0.0391  <S**2>=0.000
       9 -> 16        -0.22053
      10 -> 20         0.35887
      10 -> 22        -0.11876
      11 -> 19         0.21084
      11 -> 21         0.28532
      12 -> 25        -0.22372
      13 -> 24        -0.20018
      13 -> 27         0.12550

 Excited State  42:      Singlet-A'    14.1901 eV   87.37 nm  f=0.0844  <S**2>=0.000
       7 -> 14         0.39556
       7 -> 15         0.11093
       9 -> 15        -0.10503
       9 -> 16         0.29471
      10 -> 20         0.13025
      11 -> 19        -0.10115
      12 -> 25         0.28059
      13 -> 24        -0.26145

 Excited State  43:      Singlet-A'    14.3678 eV   86.29 nm  f=0.0777  <S**2>=0.000
       7 -> 14        -0.34618
       9 -> 16         0.22378
      10 -> 20        -0.15656
      11 -> 21         0.45797
      11 -> 25         0.11079

 Excited State  44:      Singlet-A"    14.4801 eV   85.62 nm  f=0.0090  <S**2>=0.000
       9 -> 17         0.63320
      10 -> 21        -0.10210
      11 -> 22        -0.15006
      12 -> 22         0.17703

 Excited State  45:      Singlet-A'    14.5020 eV   85.49 nm  f=0.0530  <S**2>=0.000
       7 -> 14        -0.25346
       9 -> 16        -0.11988
      10 -> 20         0.23274
      10 -> 22         0.11093
      11 -> 16         0.13697
      11 -> 19         0.13119
      12 -> 25         0.49441
      13 -> 27        -0.10825

 Excited State  46:      Singlet-A"    14.5859 eV   85.00 nm  f=0.0005  <S**2>=0.000
       8 -> 14         0.21644
       8 -> 15        -0.10598
       9 -> 17         0.19618
      10 -> 19         0.12829
      10 -> 21         0.41820
      11 -> 22         0.33062
      13 -> 23         0.12549
      13 -> 25         0.14368

 Excited State  47:      Singlet-A"    14.6215 eV   84.80 nm  f=0.0664  <S**2>=0.000
       7 -> 17        -0.15990
       8 -> 14        -0.11943
      10 -> 21        -0.33066
      11 -> 17        -0.10987
      11 -> 22         0.49942
      13 -> 25        -0.19684

 Excited State  48:      Singlet-A"    14.8258 eV   83.63 nm  f=0.0274  <S**2>=0.000
       8 -> 15        -0.17056
       8 -> 16        -0.33034
      13 -> 26         0.48838
      13 -> 28        -0.19673

 Excited State  49:      Singlet-A'    14.8976 eV   83.22 nm  f=0.1337  <S**2>=0.000
       7 -> 14         0.12094
       7 -> 15        -0.18048
       7 -> 16        -0.21063
       8 -> 17         0.14172
       9 -> 19         0.24416
      10 -> 22         0.31880
      11 -> 23         0.10057
      12 -> 25        -0.11591
      12 -> 26         0.29858
      13 -> 27        -0.24330

 Excited State  50:      Singlet-A"    14.9190 eV   83.10 nm  f=0.0119  <S**2>=0.000
       8 -> 14        -0.11390
       8 -> 15         0.35580
       8 -> 16         0.31698
       8 -> 18        -0.11103
       8 -> 19        -0.11106
       8 -> 23         0.10078
      10 -> 21         0.18754
      10 -> 25         0.15669
      11 -> 22         0.10713
      13 -> 23        -0.10405
      13 -> 26         0.29506

 Excited State  51:      Singlet-A'    14.9393 eV   82.99 nm  f=0.0508  <S**2>=0.000
       7 -> 16        -0.19304
       9 -> 16         0.20049
       9 -> 18         0.39255
      12 -> 26        -0.38342
      12 -> 28         0.21053

 Excited State  52:      Singlet-A'    15.0361 eV   82.46 nm  f=0.0475  <S**2>=0.000
       7 -> 15         0.27837
       7 -> 16         0.40257
       9 -> 18         0.14648
      10 -> 22         0.33525
      13 -> 27        -0.19599

 Excited State  53:      Singlet-A'    15.2385 eV   81.36 nm  f=0.0595  <S**2>=0.000
       7 -> 15        -0.12560
       7 -> 16         0.13856
       8 -> 17         0.12223
       9 -> 18         0.38467
      11 -> 23        -0.21600
      12 -> 26         0.27507
      13 -> 24         0.10833
      13 -> 27         0.33232

 Excited State  54:      Singlet-A"    15.2413 eV   81.35 nm  f=0.0002  <S**2>=0.000
       8 -> 15        -0.22331
       8 -> 16         0.24042
      10 -> 19        -0.10778
      10 -> 23         0.51895
      10 -> 25        -0.10951
      11 -> 24        -0.14036
      13 -> 28         0.11363

 Excited State  55:      Singlet-A'    15.2932 eV   81.07 nm  f=0.0478  <S**2>=0.000
       7 -> 15         0.46322
       7 -> 16        -0.26327
       9 -> 18         0.10067
       9 -> 19         0.23006
      11 -> 23         0.10016
      11 -> 25        -0.21843
      12 -> 26         0.14424

 Excited State  56:      Singlet-A"    15.3416 eV   80.82 nm  f=0.0035  <S**2>=0.000
       8 -> 15        -0.19051
       8 -> 16         0.21035
       9 -> 20         0.13658
       9 -> 22        -0.13605
      11 -> 24         0.18798
      12 -> 27         0.52623
      13 -> 26         0.12529

 Excited State  57:      Singlet-A"    15.3754 eV   80.64 nm  f=0.0014  <S**2>=0.000
       8 -> 15        -0.19055
       8 -> 16         0.17945
      11 -> 22        -0.10771
      11 -> 24         0.44001
      11 -> 27        -0.13066
      12 -> 27        -0.34844
      13 -> 26         0.15496

 Excited State  58:      Singlet-A'    15.4519 eV   80.24 nm  f=0.0113  <S**2>=0.000
       7 -> 16         0.14207
       9 -> 19         0.37755
      10 -> 22        -0.28370
      10 -> 24        -0.23594
      11 -> 23        -0.17644
      11 -> 25         0.13151
      12 -> 28         0.13073
      13 -> 27        -0.24493

 Excited State  59:      Singlet-A'    15.4866 eV   80.06 nm  f=0.0038  <S**2>=0.000
       9 -> 18        -0.23972
       9 -> 19         0.28303
      10 -> 22         0.30080
      12 -> 26        -0.26597
      12 -> 29         0.10697
      13 -> 27         0.36462

 Excited State  60:      Singlet-A"    15.5272 eV   79.85 nm  f=0.0125  <S**2>=0.000
       8 -> 15         0.26926
       8 -> 16        -0.17491
       9 -> 20         0.41997
      10 -> 21         0.11967
      10 -> 23         0.23089
      10 -> 25        -0.14488
      11 -> 24         0.22606
      12 -> 24        -0.10542
      13 -> 28        -0.10378

 Excited State  61:      Singlet-A"    15.5789 eV   79.58 nm  f=0.0049  <S**2>=0.000
       7 -> 17        -0.10456
       8 -> 15        -0.19306
       8 -> 16         0.10985
       9 -> 20         0.51271
      10 -> 21        -0.10404
      10 -> 23        -0.18780
      11 -> 24        -0.24522
      12 -> 27        -0.13682

 Excited State  62:      Singlet-A'    15.5990 eV   79.48 nm  f=0.1389  <S**2>=0.000
       8 -> 17         0.22647
      10 -> 24         0.49000
      10 -> 27        -0.12192
      11 -> 23        -0.27866
      13 -> 27        -0.11712

 Excited State  63:      Singlet-A"    15.6661 eV   79.14 nm  f=0.0081  <S**2>=0.000
       7 -> 17         0.57745
      11 -> 22         0.16072
      13 -> 26         0.12445
      13 -> 28         0.23661

 Excited State  64:      Singlet-A'    15.7095 eV   78.92 nm  f=0.0087  <S**2>=0.000
       7 -> 15         0.25502
       7 -> 16        -0.11107
       9 -> 19        -0.12152
      10 -> 24        -0.10672
      11 -> 21        -0.16578
      11 -> 25         0.51768
      11 -> 26        -0.15540

 Excited State  65:      Singlet-A"    15.8269 eV   78.34 nm  f=0.0599  <S**2>=0.000
       7 -> 17        -0.25776
       8 -> 16        -0.12691
       8 -> 18         0.11969
      10 -> 25         0.23859
      11 -> 24         0.13153
      12 -> 27         0.10210
      13 -> 26         0.13697
      13 -> 28         0.44666
      13 -> 29         0.16240

 Excited State  66:      Singlet-A'    15.8414 eV   78.27 nm  f=0.0507  <S**2>=0.000
       7 -> 16         0.12659
       8 -> 17         0.52454
       9 -> 21        -0.24131
      10 -> 22        -0.12737
      10 -> 24        -0.13988
      11 -> 23         0.13254
      11 -> 25        -0.13920
      12 -> 28         0.11237

 Excited State  67:      Singlet-A'    15.9336 eV   77.81 nm  f=0.0701  <S**2>=0.000
       7 -> 16         0.24424
       9 -> 19         0.12215
      10 -> 24         0.26435
      11 -> 19        -0.11610
      11 -> 23         0.39724
      11 -> 25         0.14680
      11 -> 26        -0.11701
      12 -> 25         0.13292
      12 -> 28         0.17155
      12 -> 29         0.19706

 Excited State  68:      Singlet-A"    15.9942 eV   77.52 nm  f=0.0441  <S**2>=0.000
      10 -> 23         0.15720
      10 -> 25         0.53912
      11 -> 24         0.10503
      13 -> 26        -0.17906
      13 -> 28        -0.24776

 Excited State  69:      Singlet-A'    16.0411 eV   77.29 nm  f=0.0776  <S**2>=0.000
       8 -> 17        -0.10320
       9 -> 18        -0.16555
       9 -> 19        -0.17559
       9 -> 21        -0.10043
      11 -> 23        -0.17969
      12 -> 26         0.16927
      12 -> 28         0.52889

 Excited State  70:      Singlet-A"    16.2250 eV   76.42 nm  f=0.2217  <S**2>=0.000
       8 -> 18         0.18745
       8 -> 19        -0.10901
      13 -> 28        -0.19647
      13 -> 29         0.58551

 Excited State  71:      Singlet-A'    16.3335 eV   75.91 nm  f=0.0408  <S**2>=0.000
       7 -> 18         0.19960
       8 -> 17         0.14216
       9 -> 21         0.55333
      10 -> 24        -0.10531
      12 -> 28         0.15033
      12 -> 29        -0.19416

 Excited State  72:      Singlet-A"    16.4044 eV   75.58 nm  f=0.0322  <S**2>=0.000
       7 -> 20         0.10571
       8 -> 16         0.14564
       8 -> 18         0.56438
      10 -> 26         0.14817
      13 -> 29        -0.20393

 Excited State  73:      Singlet-A'    16.4615 eV   75.32 nm  f=0.0255  <S**2>=0.000
       7 -> 18         0.33493
       7 -> 19        -0.27539
       8 -> 17        -0.16216
       8 -> 20        -0.17599
       9 -> 21        -0.18242
       9 -> 23         0.13506
      11 -> 25        -0.10440
      11 -> 26        -0.18414
      12 -> 29        -0.26685
      12 -> 30         0.14765

 Excited State  74:      Singlet-A'    16.6256 eV   74.57 nm  f=0.1388  <S**2>=0.000
       7 -> 18         0.10133
       7 -> 19        -0.14343
       8 -> 20         0.36163
      10 -> 27        -0.15260
      12 -> 29         0.13301
      13 -> 31         0.48911

 Excited State  75:      Singlet-A"    16.6271 eV   74.57 nm  f=0.0299  <S**2>=0.000
       9 -> 22         0.61909
       9 -> 24        -0.15395
      11 -> 27        -0.12343
      12 -> 27         0.15213
      12 -> 31         0.11992

 Excited State  76:      Singlet-A"    16.6944 eV   74.27 nm  f=0.0094  <S**2>=0.000
       7 -> 20         0.32280
       8 -> 18        -0.17406
       8 -> 19        -0.23256
       9 -> 22         0.12829
      10 -> 23         0.10170
      10 -> 26         0.29296
      11 -> 27         0.31423
      12 -> 31        -0.14497

 Excited State  77:      Singlet-A"    16.7154 eV   74.17 nm  f=0.0044  <S**2>=0.000
       7 -> 20        -0.24393
       8 -> 19        -0.20644
      10 -> 26         0.30948
      11 -> 27        -0.23686
      13 -> 30         0.40572

 Excited State  78:      Singlet-A'    16.7677 eV   73.94 nm  f=0.1372  <S**2>=0.000
       7 -> 19         0.37238
      11 -> 23         0.10649

 The electronic state is 1-A'.
 Alpha  occ. eigenvalues --  -24.80378 -10.37450 -10.29958  -1.27546  -0.86069
 Alpha  occ. eigenvalues --   -0.72290  -0.59138  -0.59096  -0.54585  -0.48760
 Alpha  occ. eigenvalues --   -0.48154  -0.42923  -0.41996
 Alpha virt. eigenvalues --    0.09070   0.12009   0.15176   0.15407   0.17738
 Alpha virt. eigenvalues --    0.19380   0.19629   0.21616   0.22477   0.24154
 Alpha virt. eigenvalues --    0.25483   0.26930   0.29638   0.30582   0.34015

 Mulliken charges:
               1
     1  C    0.098746
     2  C    0.473299
     3  F   -0.487437
     4  H    0.035144
     5  H    0.028483
     6  H    0.028483
     7  H   -0.088359
     8  H   -0.088359
 Sum of Mulliken charges =  -0.00000

 Dipole moment (field-independent basis, Debye):
    X=             -1.8636    Y=              0.7385    Z=             -0.0000  Tot=              2.0046
 Quadrupole moment (field-independent basis, Debye-Ang):
   XX=            -20.9050   YY=            -18.1754   ZZ=            -18.2040
   XY=              0.3224   XZ=              0.0000   YZ=              0.0000

 Normal termination of Gaussian 16 at Mon Mar 21 16:09:15 2022.
