 Gaussian 16, Revision C.01,
 Gaussian 16:  EM64L-G16RevC.01  3-Jul-2019

 ----------------------------------------------------------------------
 #P TD(Nstates=10000) wB97XD/Gen SCF(maxcycles=100) Int(Grid=ultrafine)
 ----------------------------------------------------------------------

 ---------------------
 xGDB7_00001_tier4.com
 ---------------------
 Symbolic Z-matrix:
 Charge =  0 Multiplicity = 1

                         Standard orientation:
 ---------------------------------------------------------------------
 Center     Atomic      Atomic             Coordinates (Angstroms)
 Number     Number       Type             X           Y           Z
 ---------------------------------------------------------------------
      1          6           0        0.000000    1.267731   -0.259082
      2          6           0       -0.000000   -0.000000    0.585552
      3          6           0       -0.000000   -1.267731   -0.259082
      4          1           0        0.000000    2.164308    0.363087
      5          1           0       -0.881453    1.307675   -0.903652
      6          1           0        0.881453    1.307675   -0.903652
      7          1           0       -0.874532    0.000000    1.242055
      8          1           0        0.874532   -0.000000    1.242055
      9          1           0       -0.881453   -1.307675   -0.903652
     10          1           0       -0.000000   -2.164308    0.363087
     11          1           0        0.881453   -1.307675   -0.903652
 ---------------------------------------------------------------------

 SCF Done:  E(RwB97XD) =  -119.026028607     A.U. after   12 cycles

 Excitation energies and oscillator strengths:

 Excited State   1:      Singlet-B1     9.1445 eV  135.58 nm  f=0.0028  <S**2>=0.000
      13 -> 14         0.68186
      13 -> 16         0.11638
 This state for optimization and/or second-order correction.
 Total Energy, E(TD-HF/TD-DFT) =  -118.689974027
 Copying the excited state density for this state as the 1-particle RhoCI density.

 Excited State   2:      Singlet-A1     9.5384 eV  129.98 nm  f=0.0076  <S**2>=0.000
      11 -> 15        -0.10757
      12 -> 14         0.67910

 Excited State   3:      Singlet-B2     9.5653 eV  129.62 nm  f=0.0477  <S**2>=0.000
      11 -> 14         0.68954

 Excited State   4:      Singlet-A2    10.0449 eV  123.43 nm  f=0.0000  <S**2>=0.000
      10 -> 14        -0.33358
      13 -> 15         0.60852

 Excited State   5:      Singlet-B1    10.2307 eV  121.19 nm  f=0.1842  <S**2>=0.000
      13 -> 14        -0.10160
      13 -> 16         0.67663

 Excited State   6:      Singlet-B2    10.3534 eV  119.75 nm  f=0.0096  <S**2>=0.000
       9 -> 14        -0.27733
      12 -> 15         0.63136

 Excited State   7:      Singlet-A1    10.4716 eV  118.40 nm  f=0.0901  <S**2>=0.000
       8 -> 14         0.14300
      11 -> 15         0.56573
      12 -> 16         0.37636

 Excited State   8:      Singlet-A1    10.5560 eV  117.45 nm  f=0.1091  <S**2>=0.000
      11 -> 15        -0.35849
      12 -> 14        -0.13388
      12 -> 16         0.56983

 Excited State   9:      Singlet-B2    10.7127 eV  115.74 nm  f=0.0287  <S**2>=0.000
      11 -> 16         0.69514

 Excited State  10:      Singlet-A1    10.8668 eV  114.09 nm  f=0.2228  <S**2>=0.000
      13 -> 17         0.68557

 Excited State  11:      Singlet-A2    10.8759 eV  114.00 nm  f=0.0000  <S**2>=0.000
      10 -> 14         0.57995
      10 -> 18         0.11484
      11 -> 17        -0.15313
      13 -> 15         0.31927

 Excited State  12:      Singlet-B1    11.0946 eV  111.75 nm  f=0.1000  <S**2>=0.000
      10 -> 15         0.10920
      12 -> 17         0.59978
      13 -> 18         0.32833

 Excited State  13:      Singlet-B1    11.1418 eV  111.28 nm  f=0.0076  <S**2>=0.000
      10 -> 15         0.20575
      12 -> 17        -0.33667
      13 -> 18         0.55576
      13 -> 20        -0.11593

 Excited State  14:      Singlet-A2    11.1609 eV  111.09 nm  f=0.0000  <S**2>=0.000
      10 -> 14         0.12507
      11 -> 17         0.67870

 Excited State  15:      Singlet-A1    11.4520 eV  108.26 nm  f=0.0158  <S**2>=0.000
       9 -> 15         0.19068
      12 -> 18         0.64827
      12 -> 20        -0.15423

 Excited State  16:      Singlet-B2    11.4956 eV  107.85 nm  f=0.2478  <S**2>=0.000
       8 -> 15         0.14561
       9 -> 14         0.46335
      11 -> 18        -0.42088
      12 -> 15         0.24507

 Excited State  17:      Singlet-B2    11.5168 eV  107.66 nm  f=0.0520  <S**2>=0.000
       9 -> 14         0.41600
      11 -> 18         0.52338
      12 -> 15         0.11911

 Excited State  18:      Singlet-B1    11.6417 eV  106.50 nm  f=0.0197  <S**2>=0.000
      10 -> 15         0.48139
      12 -> 19         0.14575
      13 -> 20         0.44158

 Excited State  19:      Singlet-A2    11.7484 eV  105.53 nm  f=0.0000  <S**2>=0.000
      10 -> 16         0.55230
      10 -> 24        -0.10687
      13 -> 21         0.38262

 Excited State  20:      Singlet-A1    11.8676 eV  104.47 nm  f=0.0076  <S**2>=0.000
      13 -> 19         0.67468

 Excited State  21:      Singlet-B1    11.9289 eV  103.94 nm  f=0.0408  <S**2>=0.000
      10 -> 15        -0.15409
      12 -> 19         0.66024

 Excited State  22:      Singlet-A2    12.0095 eV  103.24 nm  f=0.0000  <S**2>=0.000
      11 -> 19         0.67860

 Excited State  23:      Singlet-A1    12.0956 eV  102.50 nm  f=0.0121  <S**2>=0.000
       8 -> 14         0.19956
       9 -> 15         0.44166
      12 -> 20         0.47204

 Excited State  24:      Singlet-B1    12.1064 eV  102.41 nm  f=0.0955  <S**2>=0.000
       7 -> 14        -0.15436
      10 -> 15        -0.35067
      12 -> 19        -0.11687
      13 -> 18         0.19852
      13 -> 20         0.50481

 Excited State  25:      Singlet-B2    12.1364 eV  102.16 nm  f=0.0015  <S**2>=0.000
       9 -> 16         0.39021
      10 -> 17        -0.28049
      11 -> 20         0.24554
      12 -> 21         0.37551
      13 -> 22         0.14913

 Excited State  26:      Singlet-B2    12.1649 eV  101.92 nm  f=0.1709  <S**2>=0.000
       8 -> 15        -0.10708
       9 -> 16        -0.17006
      10 -> 17         0.14171
      11 -> 20         0.61759
      12 -> 21        -0.12298

 Excited State  27:      Singlet-B2    12.3543 eV  100.36 nm  f=0.2910  <S**2>=0.000
       9 -> 16         0.28923
      10 -> 17         0.49657
      10 -> 19        -0.11553
      11 -> 18        -0.10205
      12 -> 21         0.19786
      13 -> 22        -0.26440
      13 -> 23        -0.11101

 Excited State  28:      Singlet-A1    12.3967 eV  100.01 nm  f=0.0554  <S**2>=0.000
       8 -> 14        -0.40919
       9 -> 15        -0.24927
      11 -> 21        -0.12275
      12 -> 18         0.18951
      12 -> 20         0.41053

 Excited State  29:      Singlet-A2    12.4005 eV   99.98 nm  f=0.0000  <S**2>=0.000
      10 -> 16        -0.30574
      10 -> 18        -0.31588
      11 -> 19        -0.12488
      12 -> 23         0.17283
      13 -> 21         0.45784
      13 -> 25        -0.10937

 Excited State  30:      Singlet-A1    12.5155 eV   99.06 nm  f=0.0770  <S**2>=0.000
       8 -> 14        -0.11069
       8 -> 16        -0.21437
      11 -> 21         0.63186

 Excited State  31:      Singlet-A2    12.5228 eV   99.01 nm  f=0.0000  <S**2>=0.000
       9 -> 17         0.49329
      10 -> 16        -0.16972
      12 -> 22        -0.41316
      12 -> 23        -0.13123
      13 -> 21         0.10817

 Excited State  32:      Singlet-B2    12.6398 eV   98.09 nm  f=0.0002  <S**2>=0.000
       9 -> 16        -0.17137
      10 -> 17         0.11706
      10 -> 19         0.22186
      12 -> 21         0.27671
      13 -> 23         0.54420

 Excited State  33:      Singlet-A2    12.6482 eV   98.02 nm  f=0.0000  <S**2>=0.000
       7 -> 15        -0.16530
       9 -> 17        -0.18973
      10 -> 16        -0.16508
      10 -> 18         0.44244
      10 -> 20         0.10474
      13 -> 21         0.27499
      13 -> 25         0.30178

 Excited State  34:      Singlet-B1    12.7497 eV   97.24 nm  f=0.0098  <S**2>=0.000
       7 -> 14         0.18950
       7 -> 16         0.17042
      10 -> 21        -0.24546
      11 -> 22        -0.24167
      11 -> 23        -0.26289
      13 -> 24         0.46001

 Excited State  35:      Singlet-B2    12.7706 eV   97.09 nm  f=0.0719  <S**2>=0.000
       9 -> 16        -0.36525
       9 -> 18        -0.25119
      10 -> 19        -0.14139
      12 -> 21         0.38665
      12 -> 25        -0.15455
      13 -> 23        -0.29227

 Excited State  36:      Singlet-A1    12.7739 eV   97.06 nm  f=0.0035  <S**2>=0.000
       8 -> 14         0.44718
       8 -> 18         0.14896
       9 -> 15        -0.38968
      11 -> 25        -0.11536
      12 -> 18         0.12872
      12 -> 20         0.20363

 Excited State  37:      Singlet-B1    12.8303 eV   96.63 nm  f=0.0006  <S**2>=0.000
       7 -> 14         0.15146
       7 -> 16         0.10958
       8 -> 19        -0.10432
      10 -> 21        -0.13691
      11 -> 22         0.28726
      11 -> 23         0.49883
      13 -> 24         0.28490

 Excited State  38:      Singlet-A2    12.8570 eV   96.43 nm  f=0.0000  <S**2>=0.000
       9 -> 17         0.12223
       9 -> 19         0.19591
      10 -> 16         0.10029
      10 -> 20         0.26324
      12 -> 23         0.50852
      13 -> 21        -0.12335
      13 -> 25         0.21634
      13 -> 27        -0.11069

 Excited State  39:      Singlet-B1    12.9152 eV   96.00 nm  f=0.0352  <S**2>=0.000
       8 -> 17         0.22523
      11 -> 22         0.51509
      11 -> 23        -0.37216

 Excited State  40:      Singlet-B2    12.9826 eV   95.50 nm  f=0.0178  <S**2>=0.000
       9 -> 16         0.11983
       9 -> 18        -0.24392
      10 -> 17         0.29007
      12 -> 21        -0.13234
      12 -> 25        -0.20790
      13 -> 22         0.49037

 Excited State  41:      Singlet-B2    13.1414 eV   94.35 nm  f=0.0528  <S**2>=0.000
       8 -> 15        -0.12216
       9 -> 16        -0.16230
       9 -> 18         0.40499
      10 -> 17         0.16551
      12 -> 21         0.16695
      12 -> 25         0.29927
      13 -> 22         0.34953

 Excited State  42:      Singlet-B1    13.1450 eV   94.32 nm  f=0.0846  <S**2>=0.000
       7 -> 14         0.60098
       7 -> 18         0.10992
      10 -> 15        -0.18173
      13 -> 24        -0.25214

 Excited State  43:      Singlet-A2    13.1507 eV   94.28 nm  f=0.0000  <S**2>=0.000
      10 -> 18        -0.25875
      10 -> 20         0.49456
      12 -> 23        -0.32634
      13 -> 25         0.16756

 Excited State  44:      Singlet-A1    13.1735 eV   94.12 nm  f=0.0071  <S**2>=0.000
       8 -> 14        -0.14865
       8 -> 16         0.22096
       9 -> 15         0.12153
       9 -> 21        -0.18332
      11 -> 21         0.11438
      11 -> 25        -0.33951
      12 -> 24         0.46970

 Excited State  45:      Singlet-A2    13.4056 eV   92.49 nm  f=0.0000  <S**2>=0.000
       9 -> 17         0.41895
      12 -> 22         0.53575
      13 -> 25         0.10608

 Excited State  46:      Singlet-B2    13.4097 eV   92.46 nm  f=0.0885  <S**2>=0.000
       8 -> 21         0.10479
       9 -> 20         0.19180
      10 -> 19        -0.18116
      11 -> 20         0.11157
      11 -> 24         0.58773
      12 -> 25         0.12359
      12 -> 27        -0.10394

 Excited State  47:      Singlet-B2    13.4493 eV   92.19 nm  f=0.0669  <S**2>=0.000
       8 -> 15         0.26038
      10 -> 19         0.52365
      11 -> 24         0.15469
      12 -> 25         0.13991
      13 -> 23        -0.24725

 Excited State  48:      Singlet-A1    13.4949 eV   91.87 nm  f=0.0008  <S**2>=0.000
       7 -> 17        -0.17547
       8 -> 16        -0.21748
      10 -> 22        -0.25014
      11 -> 25         0.37174
      12 -> 24         0.35132
      13 -> 26         0.23249

 Excited State  49:      Singlet-A2    13.5504 eV   91.50 nm  f=0.0000  <S**2>=0.000
       9 -> 19        -0.15462
      10 -> 18        -0.22507
      10 -> 20        -0.28312
      10 -> 24         0.14487
      13 -> 15         0.10926
      13 -> 25         0.46356
      13 -> 27        -0.20036
      13 -> 30         0.16051

 Excited State  50:      Singlet-B2    13.5520 eV   91.49 nm  f=0.0016  <S**2>=0.000
       9 -> 18        -0.25382
       9 -> 20         0.39316
      11 -> 24        -0.26984
      12 -> 25         0.33366
      12 -> 27        -0.24338

 Excited State  51:      Singlet-B2    13.7119 eV   90.42 nm  f=0.0004  <S**2>=0.000
       8 -> 15         0.54553
       9 -> 14        -0.11171
       9 -> 20         0.10752
      10 -> 19        -0.23978
      12 -> 25         0.14598
      12 -> 27         0.16636

 Excited State  52:      Singlet-A1    13.7152 eV   90.40 nm  f=0.0000  <S**2>=0.000
       8 -> 16         0.49694
       8 -> 18        -0.12309
       9 -> 21        -0.11803
      10 -> 22        -0.18622
      11 -> 21         0.19210
      11 -> 25         0.14928
      12 -> 24        -0.21242
      13 -> 26         0.21975

 Excited State  53:      Singlet-B1    13.8378 eV   89.60 nm  f=0.0059  <S**2>=0.000
       7 -> 16        -0.17344
       7 -> 20         0.10407
       9 -> 23        -0.15032
      10 -> 21         0.28556
      12 -> 26        -0.25734
      12 -> 29        -0.20967
      13 -> 24         0.16359
      13 -> 28         0.40325

 Excited State  54:      Singlet-A2    13.8450 eV   89.55 nm  f=0.0000  <S**2>=0.000
       9 -> 19        -0.37633
      11 -> 26        -0.13216
      12 -> 23         0.20595
      13 -> 25         0.10542
      13 -> 27         0.47597

 Excited State  55:      Singlet-B1    13.8584 eV   89.46 nm  f=0.0580  <S**2>=0.000
       7 -> 16        -0.21470
       7 -> 18         0.18513
       9 -> 23         0.13016
      10 -> 21         0.40893
      12 -> 26         0.23095
      12 -> 29         0.10810
      13 -> 24         0.28733
      13 -> 28        -0.17109

 Excited State  56:      Singlet-A2    13.8666 eV   89.41 nm  f=0.0000  <S**2>=0.000
       7 -> 15         0.13097
       9 -> 19         0.45038
      10 -> 18        -0.10371
      10 -> 20        -0.10025
      11 -> 26         0.12754
      12 -> 23        -0.12522
      13 -> 25         0.24373
      13 -> 27         0.35327

 Excited State  57:      Singlet-A1    13.9937 eV   88.60 nm  f=0.0119  <S**2>=0.000
       8 -> 14         0.10407
       8 -> 16        -0.10437
       8 -> 18        -0.26368
       8 -> 20         0.16932
      11 -> 25        -0.13223
      11 -> 27         0.49637
      12 -> 28         0.20691
      13 -> 29        -0.19428

 Excited State  58:      Singlet-B1    14.0491 eV   88.25 nm  f=0.0220  <S**2>=0.000
       7 -> 18         0.10079
       8 -> 17         0.40916
       9 -> 22         0.30766
      11 -> 22        -0.18755
      12 -> 26        -0.23847
      12 -> 29         0.24767
      13 -> 28        -0.19395

 Excited State  59:      Singlet-A1    14.1277 eV   87.76 nm  f=0.2424  <S**2>=0.000
       8 -> 16        -0.21304
       8 -> 20         0.11592
       9 -> 21        -0.16758
      10 -> 23         0.22294
      11 -> 25        -0.18035
      12 -> 24        -0.13266
      12 -> 28        -0.22522
      13 -> 26         0.37710
      13 -> 29         0.27750

 Excited State  60:      Singlet-A2    14.1829 eV   87.42 nm  f=0.0000  <S**2>=0.000
       7 -> 15        -0.31854
       8 -> 22         0.10112
       9 -> 19        -0.16552
      11 -> 26         0.53162
      11 -> 29         0.19855

 Excited State  61:      Singlet-A2    14.2246 eV   87.16 nm  f=0.0000  <S**2>=0.000
       7 -> 15         0.55302
       9 -> 19        -0.13596
      10 -> 18         0.13976
      11 -> 26         0.26986
      11 -> 29         0.13574
      13 -> 27        -0.11291

 Excited State  62:      Singlet-B2    14.2276 eV   87.14 nm  f=0.0090  <S**2>=0.000
       9 -> 18        -0.29156
       9 -> 20        -0.35822
      11 -> 28        -0.23578
      12 -> 25         0.36067
      12 -> 27         0.23873

 Excited State  63:      Singlet-B2    14.2611 eV   86.94 nm  f=0.0786  <S**2>=0.000
       8 -> 15        -0.19579
       9 -> 18        -0.12569
       9 -> 20         0.20181
       9 -> 24        -0.13772
      11 -> 28         0.28119
      12 -> 27         0.48781
      12 -> 30        -0.12981

 Excited State  64:      Singlet-B1    14.2878 eV   86.78 nm  f=0.0085  <S**2>=0.000
       7 -> 16         0.57399
       9 -> 22        -0.10419
      10 -> 21         0.28297
      10 -> 25        -0.16640

 Excited State  65:      Singlet-A1    14.2904 eV   86.76 nm  f=0.0696  <S**2>=0.000
       8 -> 16         0.13319
       8 -> 20         0.13052
       9 -> 21         0.15996
      10 -> 22         0.21434
      10 -> 23         0.22875
      11 -> 25         0.19962
      12 -> 24         0.12515
      12 -> 28         0.35139
      13 -> 29         0.34503

 Excited State  66:      Singlet-B1    14.3575 eV   86.35 nm  f=0.0223  <S**2>=0.000
       7 -> 16        -0.12015
       8 -> 17         0.45836
       9 -> 22        -0.12602
      10 -> 21        -0.12296
      11 -> 22        -0.14293
      12 -> 26         0.41463
      12 -> 29        -0.14638
      13 -> 28         0.12309

 Excited State  67:      Singlet-A1    14.3957 eV   86.13 nm  f=0.0091  <S**2>=0.000
       7 -> 17         0.18392
      10 -> 23        -0.12966
      11 -> 25        -0.14158
      11 -> 27        -0.25081
      12 -> 28         0.43550
      13 -> 26         0.32905
      13 -> 29        -0.10946

 Excited State  68:      Singlet-A1    14.4746 eV   85.66 nm  f=0.0043  <S**2>=0.000
       7 -> 17        -0.18290
       7 -> 19        -0.10362
       9 -> 21        -0.13051
      10 -> 23         0.48165
      11 -> 27        -0.23096
      12 -> 24        -0.11369
      13 -> 26        -0.13882
      13 -> 29        -0.29872

 Excited State  69:      Singlet-A2    14.4856 eV   85.59 nm  f=0.0000  <S**2>=0.000
       8 -> 22        -0.13489
      10 -> 24         0.13557
      11 -> 26        -0.23262
      11 -> 29         0.61981

 Excited State  70:      Singlet-A1    14.5508 eV   85.21 nm  f=0.0157  <S**2>=0.000
       7 -> 17         0.20266
       8 -> 18         0.16798
       9 -> 21         0.34156
      10 -> 22         0.18852
      10 -> 23         0.13829
      12 -> 28        -0.18891
      13 -> 26         0.26634
      13 -> 29        -0.31134

 Excited State  71:      Singlet-B1    14.5890 eV   84.98 nm  f=0.0593  <S**2>=0.000
       7 -> 14        -0.11330
       7 -> 18         0.25393
       8 -> 17        -0.10866
       9 -> 22         0.11176
      10 -> 21        -0.11063
      10 -> 25        -0.25261
      12 -> 26         0.10305
      12 -> 29         0.31674
      13 -> 28         0.40581

 Excited State  72:      Singlet-A2    14.6565 eV   84.59 nm  f=0.0000  <S**2>=0.000
       7 -> 21         0.14674
      10 -> 20         0.15201
      10 -> 24         0.60595
      11 -> 29        -0.12441
      13 -> 27         0.16343

 Excited State  73:      Singlet-B1    14.7226 eV   84.21 nm  f=0.0143  <S**2>=0.000
       7 -> 18         0.12010
       8 -> 19        -0.28666
       9 -> 23         0.38995
      10 -> 25        -0.18255
      12 -> 26        -0.11494
      12 -> 29        -0.38898

 Excited State  74:      Singlet-A1    14.7948 eV   83.80 nm  f=0.0225  <S**2>=0.000
       7 -> 17        -0.19484
       8 -> 18         0.25427
       8 -> 20        -0.10079
       9 -> 21        -0.32893
      10 -> 22         0.40075
      10 -> 23        -0.14994
      11 -> 25         0.13255
      13 -> 26         0.13816

 Excited State  75:      Singlet-B2    14.7993 eV   83.78 nm  f=0.2601  <S**2>=0.000
       9 -> 20        -0.23095
       9 -> 24         0.11840
      10 -> 19        -0.12148
      11 -> 28         0.54986
      12 -> 25         0.15092
      12 -> 27        -0.19010

 Excited State  76:      Singlet-A1    14.8697 eV   83.38 nm  f=0.0020  <S**2>=0.000
       7 -> 17         0.19063
       8 -> 18         0.41852
       9 -> 21        -0.13415
       9 -> 25        -0.21553
      10 -> 22        -0.31082
      10 -> 23         0.11797
      11 -> 27         0.21703

 Excited State  77:      Singlet-B1    15.0204 eV   82.54 nm  f=0.1960  <S**2>=0.000
       7 -> 16         0.11299
       7 -> 18        -0.10495
       7 -> 20        -0.18156
       9 -> 22         0.32183
       9 -> 23         0.18986
      10 -> 21         0.10337
      10 -> 25         0.43261
      10 -> 27        -0.12352
      12 -> 26         0.17305
      13 -> 28         0.14760

 Excited State  78:      Singlet-A1    15.0496 eV   82.38 nm  f=0.0114  <S**2>=0.000
       7 -> 17         0.46492
       8 -> 18        -0.16505
       8 -> 20         0.14339
       9 -> 21        -0.29895
       9 -> 25         0.13537
      10 -> 22         0.11426
      11 -> 25         0.19976
      11 -> 27        -0.10156

 Excited State  79:      Singlet-B1    15.0882 eV   82.17 nm  f=0.0001  <S**2>=0.000
       7 -> 18        -0.13631
       7 -> 20         0.18414
       8 -> 19         0.35491
       9 -> 22         0.34671
      10 -> 25        -0.21235
      10 -> 27         0.17720
      12 -> 26         0.21332
      12 -> 29        -0.11725
      13 -> 28        -0.11562
      13 -> 31        -0.10862

 Excited State  80:      Singlet-B2    15.2128 eV   81.50 nm  f=0.0380  <S**2>=0.000
       8 -> 21         0.24344
       9 -> 20         0.18276
       9 -> 24         0.56870
      10 -> 26         0.11444
      12 -> 27         0.15783

 Excited State  81:      Singlet-B1    15.2507 eV   81.30 nm  f=0.2234  <S**2>=0.000
       7 -> 18         0.25916
       8 -> 19         0.44945
       9 -> 22        -0.17255
       9 -> 23         0.19641
      12 -> 26        -0.11507
      12 -> 29        -0.14335
      13 -> 31         0.25649

 Excited State  82:      Singlet-B1    15.3011 eV   81.03 nm  f=0.1716  <S**2>=0.000
       7 -> 18        -0.35718
       7 -> 20         0.11883
       8 -> 19         0.13565
       9 -> 22        -0.23437
       9 -> 23         0.36120
      10 -> 27        -0.12867
      12 -> 26        -0.10624

 The electronic state is 1-A1.
 Alpha  occ. eigenvalues --  -10.29029 -10.28275 -10.28273  -0.87477  -0.77074
 Alpha  occ. eigenvalues --   -0.67205  -0.54598  -0.52465  -0.48352  -0.46380
 Alpha  occ. eigenvalues --   -0.42002  -0.41824  -0.40733
 Alpha virt. eigenvalues --    0.09284   0.11940   0.12789   0.15757   0.17244
 Alpha virt. eigenvalues --    0.19094   0.19926   0.20420   0.21966   0.23073
 Alpha virt. eigenvalues --    0.23727   0.24853   0.26762   0.27453   0.28183

 Mulliken charges:
               1
     1  C    0.341062
     2  C   -0.542191
     3  C    0.341062
     4  H   -0.016396
     5  H    0.003680
     6  H    0.003680
     7  H   -0.060931
     8  H   -0.060931
     9  H    0.003680
    10  H   -0.016396
    11  H    0.003680
 Sum of Mulliken charges =   0.00000

 Dipole moment (field-independent basis, Debye):
    X=              0.0000    Y=             -0.0000    Z=              0.0841  Tot=              0.0841
 Quadrupole moment (field-independent basis, Debye-Ang):
   XX=            -21.3672   YY=            -22.1690   ZZ=            -21.8506
   XY=             -0.0000   XZ=             -0.0000   YZ=             -0.0000

 Normal termination of Gaussian 16 at Mon Mar 21 15:18:59 2022.
