 Gaussian 16, Revision C.01,
 Gaussian 16:  EM64L-G16RevC.01  3-Jul-2019

 ----------------------------------------------------------------------
 #P TD(Nstates=10000) wB97XD/Gen SCF(maxcycles=100) Int(Grid=ultrafine)
 ----------------------------------------------------------------------

 ---------------------
 xGDB7_00001_tier4.com
 ---------------------
 Symbolic Z-matrix:
 Charge =  0 Multiplicity = 1

                         Standard orientation:
 ---------------------------------------------------------------------
 Center     Atomic      Atomic             Coordinates (Angstroms)
 Number     Number       Type             X           Y           Z
 ---------------------------------------------------------------------
      1          6           0        0.037922   -0.393776    0.738519
      2          6           0        0.037922   -0.393776   -0.738519
      3          7           0        0.037922    0.865964    0.000000
      4          1           0        0.953211   -0.606479    1.276872
      5          1           0       -0.870248   -0.700655    1.244917
      6          1           0       -0.870248   -0.700655   -1.244917
      7          1           0        0.953211   -0.606479   -1.276872
      8          1           0       -0.886454    1.277834    0.000000
 ---------------------------------------------------------------------

 SCF Done:  E(RwB97XD) =  -133.791228335     A.U. after   13 cycles

 Excitation energies and oscillator strengths:

 Excited State   1:      Singlet-A'     7.1137 eV  174.29 nm  f=0.0018  <S**2>=0.000
      12 -> 13         0.62069
      12 -> 15         0.32306
 This state for optimization and/or second-order correction.
 Total Energy, E(TD-HF/TD-DFT) =  -133.529804247
 Copying the excited state density for this state as the 1-particle RhoCI density.

 Excited State   2:      Singlet-A'     8.0126 eV  154.74 nm  f=0.0395  <S**2>=0.000
      12 -> 13        -0.31835
      12 -> 15         0.61332
      12 -> 18        -0.10201

 Excited State   3:      Singlet-A"     8.0743 eV  153.55 nm  f=0.0075  <S**2>=0.000
      12 -> 14         0.69307

 Excited State   4:      Singlet-A'     8.6667 eV  143.06 nm  f=0.0884  <S**2>=0.000
      12 -> 16         0.68697

 Excited State   5:      Singlet-A"     9.0506 eV  136.99 nm  f=0.0465  <S**2>=0.000
      12 -> 17         0.68069

 Excited State   6:      Singlet-A'     9.4104 eV  131.75 nm  f=0.0181  <S**2>=0.000
      11 -> 13         0.65096
      11 -> 15         0.21581

 Excited State   7:      Singlet-A"     9.7526 eV  127.13 nm  f=0.0002  <S**2>=0.000
      10 -> 13         0.64437
      10 -> 15         0.26390

 Excited State   8:      Singlet-A'     9.8153 eV  126.32 nm  f=0.0078  <S**2>=0.000
      11 -> 13         0.14818
      11 -> 15        -0.14989
      12 -> 18         0.65483

 Excited State   9:      Singlet-A"    10.2161 eV  121.36 nm  f=0.0470  <S**2>=0.000
       9 -> 13        -0.31459
      10 -> 15         0.17755
      11 -> 14         0.59012

 Excited State  10:      Singlet-A'    10.2368 eV  121.12 nm  f=0.0631  <S**2>=0.000
      11 -> 13        -0.18265
      11 -> 15         0.63278
      12 -> 18         0.19064

 Excited State  11:      Singlet-A"    10.5416 eV  117.61 nm  f=0.0262  <S**2>=0.000
       9 -> 13         0.54702
      10 -> 13         0.11326
      10 -> 15        -0.17368
      11 -> 14         0.35939

 Excited State  12:      Singlet-A"    10.5773 eV  117.22 nm  f=0.0963  <S**2>=0.000
       9 -> 13         0.27196
      10 -> 13        -0.22004
      10 -> 15         0.59175

 Excited State  13:      Singlet-A'    10.6710 eV  116.19 nm  f=0.0308  <S**2>=0.000
      10 -> 14         0.68878

 Excited State  14:      Singlet-A"    10.6946 eV  115.93 nm  f=0.0354  <S**2>=0.000
      12 -> 19         0.68470
      12 -> 21        -0.10668

 Excited State  15:      Singlet-A'    10.7461 eV  115.38 nm  f=0.0113  <S**2>=0.000
       9 -> 14         0.10317
      11 -> 15        -0.11940
      12 -> 20         0.66074

 Excited State  16:      Singlet-A'    10.9281 eV  113.45 nm  f=0.0367  <S**2>=0.000
      11 -> 16         0.67665

 Excited State  17:      Singlet-A"    11.1259 eV  111.44 nm  f=0.0256  <S**2>=0.000
       9 -> 15        -0.38470
      10 -> 16         0.49678
      11 -> 17        -0.26833

 Excited State  18:      Singlet-A"    11.2863 eV  109.85 nm  f=0.0016  <S**2>=0.000
       9 -> 15         0.39205
      10 -> 16         0.26279
      11 -> 17        -0.18013
      12 -> 19         0.10421
      12 -> 21         0.44023
      12 -> 22         0.11291

 Excited State  19:      Singlet-A'    11.3058 eV  109.66 nm  f=0.0920  <S**2>=0.000
       9 -> 14         0.65674
       9 -> 17        -0.10547

 Excited State  20:      Singlet-A"    11.4477 eV  108.30 nm  f=0.0698  <S**2>=0.000
       9 -> 15        -0.35968
      10 -> 16        -0.34967
      11 -> 17        -0.20051
      12 -> 21         0.39239
      12 -> 22         0.13893

 Excited State  21:      Singlet-A"    11.6481 eV  106.44 nm  f=0.1108  <S**2>=0.000
       9 -> 15        -0.16610
       9 -> 16        -0.12839
      10 -> 16         0.19171
      11 -> 17         0.50945
      12 -> 21         0.17767
      12 -> 22         0.29814

 Excited State  22:      Singlet-A'    11.7128 eV  105.85 nm  f=0.0713  <S**2>=0.000
      10 -> 17         0.49808
      12 -> 23        -0.37402
      12 -> 24        -0.24033

 Excited State  23:      Singlet-A"    11.8862 eV  104.31 nm  f=0.0016  <S**2>=0.000
       9 -> 15         0.10425
      11 -> 17        -0.18630
      12 -> 21        -0.27574
      12 -> 22         0.59294

 Excited State  24:      Singlet-A'    11.9479 eV  103.77 nm  f=0.0273  <S**2>=0.000
      10 -> 17         0.17926
      11 -> 18        -0.32855
      12 -> 23         0.48017
      12 -> 24        -0.29071

 Excited State  25:      Singlet-A'    12.1295 eV  102.22 nm  f=0.0008  <S**2>=0.000
       9 -> 17         0.53542
      11 -> 18         0.37274
      12 -> 23         0.11864
      12 -> 24        -0.10109
      12 -> 25         0.14252

 Excited State  26:      Singlet-A"    12.1456 eV  102.08 nm  f=0.1029  <S**2>=0.000
       9 -> 16         0.65233
      10 -> 18         0.16014

 Excited State  27:      Singlet-A'    12.1851 eV  101.75 nm  f=0.0254  <S**2>=0.000
       9 -> 14        -0.10378
       9 -> 17        -0.40924
      11 -> 18         0.43094
      12 -> 23         0.18444
      12 -> 24        -0.27588

 Excited State  28:      Singlet-A"    12.4058 eV   99.94 nm  f=0.0165  <S**2>=0.000
       9 -> 16        -0.14979
      10 -> 18         0.67112

 Excited State  29:      Singlet-A'    12.4784 eV   99.36 nm  f=0.0188  <S**2>=0.000
      10 -> 17        -0.27629
      11 -> 18        -0.17971
      11 -> 20        -0.27632
      12 -> 23        -0.17711
      12 -> 24        -0.31279
      12 -> 25         0.35734
      12 -> 27        -0.15133

 Excited State  30:      Singlet-A'    12.5132 eV   99.08 nm  f=0.0120  <S**2>=0.000
      10 -> 17         0.13878
      12 -> 24         0.32672
      12 -> 25         0.55338
      12 -> 27         0.13598

 Excited State  31:      Singlet-A"    12.8351 eV   96.60 nm  f=0.0007  <S**2>=0.000
       9 -> 18         0.11957
      11 -> 19         0.66908

 Excited State  32:      Singlet-A"    13.1157 eV   94.53 nm  f=0.0030  <S**2>=0.000
       8 -> 14         0.13861
       9 -> 18         0.61022
      11 -> 19        -0.15645
      12 -> 26         0.19163

 Excited State  33:      Singlet-A'    13.1888 eV   94.01 nm  f=0.0594  <S**2>=0.000
       8 -> 13        -0.11226
       8 -> 15        -0.13194
      10 -> 19         0.47058
      10 -> 21        -0.12227
      11 -> 20        -0.36791
      12 -> 25        -0.10317
      12 -> 27         0.20886
      12 -> 28        -0.10158

 Excited State  34:      Singlet-A"    13.2222 eV   93.77 nm  f=0.0552  <S**2>=0.000
       9 -> 18        -0.19009
      12 -> 26         0.64590

 Excited State  35:      Singlet-A'    13.2397 eV   93.65 nm  f=0.0153  <S**2>=0.000
       8 -> 13        -0.10751
       9 -> 19        -0.11437
      10 -> 19         0.46951
      11 -> 20         0.31191
      12 -> 27        -0.29592
      12 -> 28         0.17322

 Excited State  36:      Singlet-A"    13.2516 eV   93.56 nm  f=0.0007  <S**2>=0.000
      10 -> 20         0.67506

 Excited State  37:      Singlet-A'    13.3957 eV   92.56 nm  f=0.0254  <S**2>=0.000
       8 -> 13         0.60344
       8 -> 15         0.17945
       9 -> 19        -0.12616
      10 -> 19         0.15099
      12 -> 28         0.11447

 Excited State  38:      Singlet-A'    13.5177 eV   91.72 nm  f=0.1549  <S**2>=0.000
       8 -> 13        -0.15305
      10 -> 17        -0.17492
      11 -> 20         0.24033
      12 -> 23        -0.10825
      12 -> 24        -0.11849
      12 -> 27         0.50205
      12 -> 28         0.20206

 Excited State  39:      Singlet-A"    13.6456 eV   90.86 nm  f=0.0009  <S**2>=0.000
       9 -> 20         0.12255
      11 -> 21         0.59980
      11 -> 22         0.30476

 Excited State  40:      Singlet-A'    13.7963 eV   89.87 nm  f=0.0898  <S**2>=0.000
       8 -> 13        -0.13422
      10 -> 17         0.13406
      10 -> 19        -0.11529
      10 -> 21        -0.22635
      11 -> 20        -0.21395
      12 -> 24         0.10830
      12 -> 28         0.52466

 Excited State  41:      Singlet-A'    13.9117 eV   89.12 nm  f=0.0405  <S**2>=0.000
       9 -> 19         0.45123
      10 -> 21         0.38786
      11 -> 23         0.19595
      12 -> 28         0.20634

 Excited State  42:      Singlet-A"    14.0091 eV   88.50 nm  f=0.0119  <S**2>=0.000
       8 -> 14         0.30610
       8 -> 17        -0.12366
       9 -> 18        -0.19413
       9 -> 20         0.43547
      11 -> 22        -0.30181
      12 -> 29        -0.18836

 Excited State  43:      Singlet-A"    14.0344 eV   88.34 nm  f=0.0982  <S**2>=0.000
       8 -> 14         0.31201
      11 -> 21        -0.27958
      11 -> 22         0.50966
      12 -> 29        -0.11643

 Excited State  44:      Singlet-A'    14.0520 eV   88.23 nm  f=0.1098  <S**2>=0.000
       8 -> 13        -0.14388
       8 -> 15         0.60190
       9 -> 21         0.14087
      11 -> 24        -0.16107
      12 -> 28        -0.13623

 Excited State  45:      Singlet-A'    14.0927 eV   87.98 nm  f=0.0277  <S**2>=0.000
       9 -> 19        -0.15461
      11 -> 23         0.63065
      12 -> 28        -0.15357

 Excited State  46:      Singlet-A"    14.2029 eV   87.30 nm  f=0.0001  <S**2>=0.000
       8 -> 14         0.12151
       9 -> 20         0.20634
      12 -> 29         0.62866

 Excited State  47:      Singlet-A'    14.3009 eV   86.70 nm  f=0.0066  <S**2>=0.000
       7 -> 13        -0.21826
       9 -> 19        -0.22430
      10 -> 21         0.23100
      10 -> 22         0.37430
      11 -> 20        -0.12450
      11 -> 24         0.37178

 Excited State  48:      Singlet-A"    14.3083 eV   86.65 nm  f=0.0713  <S**2>=0.000
       8 -> 14         0.42707
       9 -> 20        -0.35422
      10 -> 23         0.34479
      11 -> 21         0.12327
      11 -> 22        -0.13418

 Excited State  49:      Singlet-A'    14.4377 eV   85.88 nm  f=0.0045  <S**2>=0.000
       7 -> 13         0.22093
       8 -> 15         0.10281
       9 -> 19         0.28309
      10 -> 21        -0.31442
      10 -> 22         0.46280

 Excited State  50:      Singlet-A"    14.4468 eV   85.82 nm  f=0.0000  <S**2>=0.000
       8 -> 14        -0.22310
       9 -> 20         0.24500
      10 -> 23         0.59661

 Excited State  51:      Singlet-A'    14.5118 eV   85.44 nm  f=0.0205  <S**2>=0.000
       8 -> 15         0.10453
       9 -> 19         0.21617
      10 -> 21        -0.10245
      10 -> 22        -0.32260
      11 -> 23         0.10931
      11 -> 24         0.50096

 Excited State  52:      Singlet-A"    14.6818 eV   84.45 nm  f=0.0551  <S**2>=0.000
       8 -> 17         0.22014
      10 -> 24         0.63664
      12 -> 29        -0.10088

 Excited State  53:      Singlet-A'    14.7791 eV   83.89 nm  f=0.1416  <S**2>=0.000
       7 -> 13         0.30541
       7 -> 15         0.17567
       8 -> 16         0.36711
       9 -> 21         0.39479
       9 -> 22         0.14822

 Excited State  54:      Singlet-A"    14.8777 eV   83.34 nm  f=0.0020  <S**2>=0.000
       8 -> 14         0.13054
       8 -> 17         0.60987
      10 -> 24        -0.21847
      10 -> 25         0.14104

 Excited State  55:      Singlet-A'    14.8818 eV   83.31 nm  f=0.0545  <S**2>=0.000
      11 -> 25        -0.39258
      12 -> 30         0.54475

 Excited State  56:      Singlet-A'    14.9597 eV   82.88 nm  f=0.1638  <S**2>=0.000
       7 -> 13        -0.13477
      11 -> 25         0.50469
      12 -> 30         0.38304

 Excited State  57:      Singlet-A"    14.9909 eV   82.71 nm  f=0.0025  <S**2>=0.000
       9 -> 23         0.49025
      10 -> 25         0.45932

 Excited State  58:      Singlet-A'    15.0065 eV   82.62 nm  f=0.1948  <S**2>=0.000
       7 -> 13        -0.35961
       7 -> 15         0.10252
       8 -> 15        -0.10356
       8 -> 16        -0.24764
       9 -> 21         0.45156
      12 -> 30        -0.11119
      12 -> 32         0.11983

 Excited State  59:      Singlet-A'    15.1123 eV   82.04 nm  f=0.0391  <S**2>=0.000
       7 -> 13        -0.28629
       8 -> 16         0.42821
       8 -> 18         0.14377
       9 -> 22        -0.19739
      10 -> 21        -0.21139
      10 -> 26         0.15794
      11 -> 25        -0.12050
      11 -> 27        -0.15981
      11 -> 28         0.10337

 Excited State  60:      Singlet-A'    15.2248 eV   81.44 nm  f=0.3557  <S**2>=0.000
       7 -> 13        -0.16241
       8 -> 16         0.12543
       9 -> 21        -0.15277
       9 -> 22         0.57700
      10 -> 21        -0.10623
      10 -> 26        -0.14346
      11 -> 24        -0.10978

 Excited State  61:      Singlet-A"    15.3101 eV   80.98 nm  f=0.1613  <S**2>=0.000
       7 -> 14        -0.20396
       9 -> 23        -0.36625
       9 -> 24        -0.19314
      10 -> 25         0.38803
      11 -> 26        -0.28391

 Excited State  62:      Singlet-A"    15.5174 eV   79.90 nm  f=0.2185  <S**2>=0.000
       9 -> 24         0.56857
       9 -> 25         0.13390
      10 -> 25         0.13752
      11 -> 26        -0.10693
      12 -> 31         0.24053

 Excited State  63:      Singlet-A"    15.5334 eV   79.82 nm  f=0.0582  <S**2>=0.000
       7 -> 14         0.33702
       9 -> 23        -0.26017
      10 -> 25         0.23161
      10 -> 27        -0.12701
      11 -> 26         0.44506

 Excited State  64:      Singlet-A'    15.5433 eV   79.77 nm  f=0.0815  <S**2>=0.000
       7 -> 15         0.41912
       9 -> 21        -0.23682
      11 -> 25         0.10041
      11 -> 27        -0.36359
      12 -> 32         0.25982

 Excited State  65:      Singlet-A"    15.6071 eV   79.44 nm  f=0.0195  <S**2>=0.000
       7 -> 14        -0.18173
       9 -> 24        -0.11523
       9 -> 25        -0.12813
      10 -> 27         0.17408
      11 -> 26         0.26396
      12 -> 31         0.53080

 Excited State  66:      Singlet-A'    15.6204 eV   79.37 nm  f=0.2043  <S**2>=0.000
       7 -> 15        -0.32683
       8 -> 18         0.11279
       9 -> 22         0.14491
      10 -> 26         0.16545
      12 -> 32         0.50963
      12 -> 33         0.13113

 Excited State  67:      Singlet-A'    15.6797 eV   79.07 nm  f=0.0467  <S**2>=0.000
       7 -> 13        -0.11156
       7 -> 15         0.30105
       8 -> 18        -0.10352
      10 -> 26         0.21091
      11 -> 27         0.50129
      12 -> 32         0.18046

 Excited State  68:      Singlet-A"    15.7121 eV   78.91 nm  f=0.1390  <S**2>=0.000
       7 -> 14         0.47755
       7 -> 17        -0.15124
       9 -> 24        -0.19516
       9 -> 25        -0.13044
      11 -> 26        -0.32966
      12 -> 31         0.22171

 Excited State  69:      Singlet-A"    15.8022 eV   78.46 nm  f=0.0085  <S**2>=0.000
       7 -> 14         0.14758
       9 -> 25         0.29925
      10 -> 27         0.54115
      10 -> 28        -0.15366
      12 -> 31        -0.12649

 Excited State  70:      Singlet-A'    15.9177 eV   77.89 nm  f=0.0717  <S**2>=0.000
       7 -> 16         0.19779
       8 -> 16        -0.13872
       8 -> 18         0.28604
       9 -> 22         0.13928
       9 -> 26         0.12679
      10 -> 26         0.43775
      11 -> 28        -0.13419
      12 -> 32        -0.22926
      12 -> 33         0.16362

 Excited State  71:      Singlet-A"    15.9827 eV   77.57 nm  f=0.0320  <S**2>=0.000
       7 -> 17         0.28280
       9 -> 24        -0.14638
       9 -> 25         0.44575
       9 -> 27         0.13374
      10 -> 27        -0.22046
      11 -> 29         0.22967
      12 -> 31         0.18373

 Excited State  72:      Singlet-A'    16.0340 eV   77.33 nm  f=0.1297  <S**2>=0.000
       7 -> 16         0.16177
       8 -> 18         0.51273
      10 -> 26        -0.26049
      11 -> 27         0.11392
      12 -> 33        -0.26850

 Excited State  73:      Singlet-A"    16.1523 eV   76.76 nm  f=0.0297  <S**2>=0.000
       7 -> 14         0.11388
       7 -> 17         0.43733
       9 -> 25        -0.31577
      10 -> 27         0.21763
      10 -> 28         0.17935
      11 -> 29         0.26301

 Excited State  74:      Singlet-A'    16.2305 eV   76.39 nm  f=0.1078  <S**2>=0.000
      10 -> 26         0.23882
      11 -> 28         0.43687
      12 -> 33        -0.43139

 Excited State  75:      Singlet-A'    16.3382 eV   75.89 nm  f=0.1859  <S**2>=0.000
       7 -> 16        -0.12457
       8 -> 18         0.18532
      10 -> 29        -0.12382
      11 -> 27         0.19223
      11 -> 28         0.44187
      11 -> 30         0.10397
      12 -> 33         0.37715

 Excited State  76:      Singlet-A'    16.4673 eV   75.29 nm  f=0.0109  <S**2>=0.000
       7 -> 15        -0.10272
       7 -> 16         0.53637
       8 -> 18        -0.15750
       9 -> 26         0.26554
      10 -> 26        -0.13807
      11 -> 28         0.12700

 Excited State  77:      Singlet-A"    16.4805 eV   75.23 nm  f=0.0134  <S**2>=0.000
       7 -> 17        -0.34699
      10 -> 27         0.14881
      10 -> 28         0.46864
      11 -> 29         0.27152

 Excited State  78:      Singlet-A"    16.5607 eV   74.87 nm  f=0.1251  <S**2>=0.000
       7 -> 17        -0.16671
       8 -> 19        -0.37060
       9 -> 27         0.12232
       9 -> 28         0.10533
      10 -> 28        -0.31562
      11 -> 29         0.41045

 Excited State  79:      Singlet-A'    16.6173 eV   74.61 nm  f=0.2570  <S**2>=0.000
       7 -> 16        -0.27511
       8 -> 20        -0.19763
       9 -> 26         0.54857
      10 -> 29         0.11044

 Excited State  80:      Singlet-A"    16.7189 eV   74.16 nm  f=0.0109  <S**2>=0.000
       6 -> 13        -0.11054
       8 -> 19         0.35660
       9 -> 25        -0.10424
       9 -> 27         0.49459
       9 -> 28        -0.12061
      11 -> 29         0.11817

 Excited State  81:      Singlet-A"    16.7663 eV   73.95 nm  f=0.0536  <S**2>=0.000
       8 -> 19         0.38336
       9 -> 27        -0.33189
       9 -> 28         0.11168
      10 -> 28        -0.15615
      11 -> 29         0.24458
      11 -> 31        -0.11599
      12 -> 34         0.20797
      12 -> 35        -0.11934

 Excited State  82:      Singlet-A'    16.8341 eV   73.65 nm  f=0.0321  <S**2>=0.000
       8 -> 20         0.52041
       9 -> 26         0.23418
      10 -> 29        -0.33516

 Excited State  83:      Singlet-A"    16.8432 eV   73.61 nm  f=0.0858  <S**2>=0.000
       9 -> 27         0.16571
      10 -> 28         0.10570
      12 -> 34         0.62978
      12 -> 36        -0.11561

 Excited State  84:      Singlet-A'    17.0289 eV   72.81 nm  f=0.0047  <S**2>=0.000
      11 -> 28        -0.10227
      11 -> 30         0.54182
      12 -> 37        -0.38466

 Excited State  85:      Singlet-A"    17.1041 eV   72.49 nm  f=0.0025  <S**2>=0.000
       8 -> 19         0.10435
       9 -> 30        -0.10483
      10 -> 30         0.14610
      12 -> 35         0.53472
      12 -> 36        -0.33038

 Excited State  86:      Singlet-A'    17.1421 eV   72.33 nm  f=0.1827  <S**2>=0.000
       8 -> 20         0.33788
      10 -> 29         0.50630
      10 -> 31         0.12779
      11 -> 30         0.16831
      12 -> 37         0.10171

 Excited State  87:      Singlet-A'    17.2823 eV   71.74 nm  f=0.0421  <S**2>=0.000
       7 -> 18         0.16494
      10 -> 29        -0.18688
      11 -> 30         0.33402
      12 -> 37         0.50196

 Excited State  88:      Singlet-A"    17.3578 eV   71.43 nm  f=0.0006  <S**2>=0.000
       6 -> 13         0.34824
       6 -> 15         0.16932
       8 -> 21         0.13559
       9 -> 28        -0.23264
      10 -> 30         0.45917
      12 -> 35        -0.14473

 Excited State  89:      Singlet-A'    17.4255 eV   71.15 nm  f=0.0940  <S**2>=0.000
       6 -> 14        -0.10581
       7 -> 18         0.62519
       8 -> 24         0.13256
      11 -> 30        -0.11595
      12 -> 37        -0.12982

 Excited State  90:      Singlet-A"    17.4779 eV   70.94 nm  f=0.0000  <S**2>=0.000
       6 -> 13         0.45250
       8 -> 21        -0.14024
       9 -> 28         0.26203
      11 -> 31        -0.28062
      12 -> 35         0.17157
      12 -> 36         0.17124

 Excited State  91:      Singlet-A"    17.5227 eV   70.76 nm  f=0.0251  <S**2>=0.000
       6 -> 13        -0.13285
       8 -> 21         0.29971
       9 -> 28         0.12054
      10 -> 30         0.12782
      11 -> 31         0.12322
      12 -> 34         0.10920
      12 -> 35         0.25729
      12 -> 36         0.46066

 Excited State  92:      Singlet-A"    17.5586 eV   70.61 nm  f=0.0177  <S**2>=0.000
       9 -> 27         0.16244
       9 -> 28         0.49683
       9 -> 30         0.12072
      10 -> 30         0.24564
      11 -> 31         0.11606
      12 -> 35        -0.12978
      12 -> 36        -0.24889

 Excited State  93:      Singlet-A'    17.5718 eV   70.56 nm  f=0.0256  <S**2>=0.000
       9 -> 29         0.61918
      11 -> 32         0.11728
      12 -> 38         0.18237

 The electronic state is 1-A'.
 Alpha  occ. eigenvalues --  -14.44272 -10.32615 -10.32590  -1.05621  -0.74894
 Alpha  occ. eigenvalues --   -0.70686  -0.61389  -0.56039  -0.45982  -0.43414
 Alpha  occ. eigenvalues --   -0.42216  -0.33640
 Alpha virt. eigenvalues --    0.09569   0.11571   0.12777   0.15873   0.18946
 Alpha virt. eigenvalues --    0.19524   0.21470   0.23275   0.26135   0.26677
 Alpha virt. eigenvalues --    0.27079   0.28447   0.30081   0.32340   0.33411

 Mulliken charges:
               1
     1  C    0.547103
     2  C    0.547103
     3  N   -0.423806
     4  H   -0.197577
     5  H   -0.134099
     6  H   -0.134099
     7  H   -0.197577
     8  H   -0.007050
 Sum of Mulliken charges =  -0.00000

 Dipole moment (field-independent basis, Debye):
    X=             -1.3270    Y=             -1.1147    Z=              0.0000  Tot=              1.7331
 Quadrupole moment (field-independent basis, Debye-Ang):
   XX=            -17.7082   YY=            -21.2053   ZZ=            -18.5286
   XY=             -2.1573   XZ=              0.0000   YZ=              0.0000

 Normal termination of Gaussian 16 at Mon Mar 21 15:52:28 2022.
