 Gaussian 16, Revision C.01,
 Gaussian 16:  EM64L-G16RevC.01  3-Jul-2019

 ----------------------------------------------------------------------
 #P TD(Nstates=10000) wB97XD/Gen SCF(maxcycles=100) Int(Grid=ultrafine)
 ----------------------------------------------------------------------

 ---------------------
 xGDB7_00001_tier4.com
 ---------------------
 Symbolic Z-matrix:
 Charge =  0 Multiplicity = 1

                         Standard orientation:
 ---------------------------------------------------------------------
 Center     Atomic      Atomic             Coordinates (Angstroms)
 Number     Number       Type             X           Y           Z
 ---------------------------------------------------------------------
      1          6           0       -0.049078    0.702042   -0.000000
      2          7           0       -0.049078   -0.754243    0.000000
      3          1           0        0.946109    1.166603   -0.000000
      4          1           0       -0.587574    1.062597    0.877770
      5          1           0       -0.587574    1.062597   -0.877770
      6          1           0        0.433525   -1.112175    0.812504
      7          1           0        0.433525   -1.112175   -0.812504
 ---------------------------------------------------------------------

 SCF Done:  E(RwB97XD) =  -95.7662467590     A.U. after   15 cycles

 Excitation energies and oscillator strengths:

 Excited State   1:      Singlet-A'     6.4987 eV  190.78 nm  f=0.0109  <S**2>=0.000
       9 -> 10         0.66100
       9 -> 11         0.23786
 This state for optimization and/or second-order correction.
 Total Energy, E(TD-HF/TD-DFT) =  -95.5274256042
 Copying the excited state density for this state as the 1-particle RhoCI density.

 Excited State   2:      Singlet-A'     7.8071 eV  158.81 nm  f=0.0445  <S**2>=0.000
       9 -> 10        -0.23339
       9 -> 11         0.65735

 Excited State   3:      Singlet-A"     8.3047 eV  149.29 nm  f=0.0089  <S**2>=0.000
       9 -> 12         0.69228

 Excited State   4:      Singlet-A'     9.0679 eV  136.73 nm  f=0.0907  <S**2>=0.000
       9 -> 13         0.69069

 Excited State   5:      Singlet-A"     9.4313 eV  131.46 nm  f=0.0000  <S**2>=0.000
       9 -> 14         0.69081

 Excited State   6:      Singlet-A'    10.0201 eV  123.74 nm  f=0.0139  <S**2>=0.000
       9 -> 15         0.68143

 Excited State   7:      Singlet-A"    10.0788 eV  123.01 nm  f=0.0196  <S**2>=0.000
       8 -> 10         0.69697

 Excited State   8:      Singlet-A'    10.1042 eV  122.71 nm  f=0.0224  <S**2>=0.000
       9 -> 16         0.68001
       9 -> 18        -0.10731

 Excited State   9:      Singlet-A"    10.7435 eV  115.40 nm  f=0.0002  <S**2>=0.000
       9 -> 17         0.68086

 Excited State  10:      Singlet-A'    11.1560 eV  111.14 nm  f=0.0724  <S**2>=0.000
       7 -> 10         0.65867
       9 -> 18         0.15801
       9 -> 19         0.13620

 Excited State  11:      Singlet-A"    11.1651 eV  111.05 nm  f=0.1083  <S**2>=0.000
       8 -> 11         0.69055

 Excited State  12:      Singlet-A'    11.5176 eV  107.65 nm  f=0.0090  <S**2>=0.000
       7 -> 10        -0.22023
       9 -> 15        -0.10140
       9 -> 16         0.12208
       9 -> 18         0.43884
       9 -> 19         0.44397

 Excited State  13:      Singlet-A'    11.7239 eV  105.75 nm  f=0.0173  <S**2>=0.000
       6 -> 10         0.19702
       8 -> 12         0.14180
       9 -> 18        -0.43351
       9 -> 19         0.45869

 Excited State  14:      Singlet-A"    11.7610 eV  105.42 nm  f=0.0132  <S**2>=0.000
       9 -> 20         0.69168

 Excited State  15:      Singlet-A'    12.1215 eV  102.28 nm  f=0.2727  <S**2>=0.000
       6 -> 10         0.22364
       7 -> 11        -0.35357
       8 -> 12         0.52550
       9 -> 19        -0.11115

 Excited State  16:      Singlet-A'    12.1552 eV  102.00 nm  f=0.0325  <S**2>=0.000
       6 -> 10        -0.39840
       7 -> 11         0.37348
       8 -> 12         0.42627

 Excited State  17:      Singlet-A"    12.3552 eV  100.35 nm  f=0.0365  <S**2>=0.000
       8 -> 13         0.69231

 Excited State  18:      Singlet-A'    12.4163 eV   99.86 nm  f=0.0361  <S**2>=0.000
       6 -> 10         0.46242
       7 -> 11         0.45094
       8 -> 14         0.14226
       9 -> 18         0.11326
       9 -> 19        -0.11132

 Excited State  19:      Singlet-A'    12.8659 eV   96.37 nm  f=0.0879  <S**2>=0.000
       6 -> 10        -0.10250
       8 -> 14         0.41432
       9 -> 18        -0.11505
       9 -> 19         0.12343
       9 -> 21         0.50451

 Excited State  20:      Singlet-A"    13.0192 eV   95.23 nm  f=0.0168  <S**2>=0.000
       7 -> 12         0.67170
       9 -> 22         0.15369

 Excited State  21:      Singlet-A'    13.0735 eV   94.84 nm  f=0.1800  <S**2>=0.000
       6 -> 11        -0.20828
       7 -> 13        -0.10156
       8 -> 14         0.46800
       8 -> 17        -0.11337
       9 -> 21        -0.42061

 Excited State  22:      Singlet-A'    13.2860 eV   93.32 nm  f=0.1091  <S**2>=0.000
       6 -> 10        -0.10839
       6 -> 11         0.64067
       8 -> 14         0.17802

 Excited State  23:      Singlet-A"    13.3002 eV   93.22 nm  f=0.0002  <S**2>=0.000
       5 -> 10         0.26064
       5 -> 11         0.16982
       7 -> 12         0.10509
       7 -> 14         0.22634
       8 -> 15         0.40761
       9 -> 22        -0.38476

 Excited State  24:      Singlet-A"    13.3303 eV   93.01 nm  f=0.0169  <S**2>=0.000
       5 -> 10         0.17435
       7 -> 14        -0.13072
       8 -> 15        -0.18230
       8 -> 16         0.61368

 Excited State  25:      Singlet-A"    13.4353 eV   92.28 nm  f=0.1888  <S**2>=0.000
       5 -> 10         0.16461
       5 -> 11         0.13853
       7 -> 12        -0.12124
       7 -> 14         0.12685
       8 -> 15         0.31263
       8 -> 16         0.10452
       9 -> 22         0.54419

 Excited State  26:      Singlet-A'    13.5809 eV   91.29 nm  f=0.0003  <S**2>=0.000
       7 -> 13         0.64713
       8 -> 17        -0.16298
       9 -> 23        -0.10921

 Excited State  27:      Singlet-A"    13.7533 eV   90.15 nm  f=0.0682  <S**2>=0.000
       5 -> 10         0.56357
       7 -> 14        -0.10131
       8 -> 11        -0.11551
       8 -> 15        -0.25905
       8 -> 16        -0.26636

 Excited State  28:      Singlet-A'    13.8079 eV   89.79 nm  f=0.2366  <S**2>=0.000
       7 -> 13         0.12980
       9 -> 23         0.64540
       9 -> 24        -0.13967

 Excited State  29:      Singlet-A"    13.8104 eV   89.78 nm  f=0.0353  <S**2>=0.000
       6 -> 12         0.28618
       7 -> 14         0.55797
       8 -> 15        -0.29163

 Excited State  30:      Singlet-A"    14.0854 eV   88.02 nm  f=0.1206  <S**2>=0.000
       6 -> 12         0.61420
       7 -> 14        -0.25649
       7 -> 17         0.10734
       8 -> 19         0.12010

 Excited State  31:      Singlet-A'    14.1088 eV   87.88 nm  f=0.0147  <S**2>=0.000
       6 -> 13         0.19406
       7 -> 15         0.13416
       8 -> 17        -0.25438
       9 -> 21         0.13926
       9 -> 23         0.13827
       9 -> 24         0.55400

 Excited State  32:      Singlet-A'    14.2440 eV   87.04 nm  f=0.0161  <S**2>=0.000
       6 -> 13        -0.37455
       7 -> 15        -0.15377
       8 -> 17         0.40761
       9 -> 24         0.34931

 Excited State  33:      Singlet-A'    14.5619 eV   85.14 nm  f=0.0386  <S**2>=0.000
       6 -> 13        -0.41927
       7 -> 15         0.47699
       7 -> 16         0.17071
       8 -> 17        -0.16127

 Excited State  34:      Singlet-A'    14.7243 eV   84.20 nm  f=0.1269  <S**2>=0.000
       7 -> 13        -0.10325
       7 -> 15        -0.25218
       7 -> 16         0.59699
       8 -> 17        -0.12968

 Excited State  35:      Singlet-A"    14.7402 eV   84.11 nm  f=0.0019  <S**2>=0.000
       5 -> 13         0.10393
       6 -> 14         0.59470
       8 -> 18         0.26582
       8 -> 19        -0.14610

 Excited State  36:      Singlet-A"    14.8055 eV   83.74 nm  f=0.0022  <S**2>=0.000
       5 -> 11         0.37065
       6 -> 14        -0.12861
       7 -> 17         0.10761
       8 -> 18         0.48646
       8 -> 19         0.21527

 Excited State  37:      Singlet-A'    14.8137 eV   83.70 nm  f=0.1585  <S**2>=0.000
       5 -> 12         0.13111
       6 -> 13         0.27744
       6 -> 16         0.11189
       7 -> 13         0.10261
       7 -> 15         0.25659
       7 -> 16         0.15111
       8 -> 17         0.36571
       8 -> 20        -0.15034
       9 -> 25        -0.30272

 Excited State  38:      Singlet-A"    14.9128 eV   83.14 nm  f=0.0425  <S**2>=0.000
       5 -> 10        -0.16005
       5 -> 11         0.44681
       6 -> 14         0.26300
       8 -> 15        -0.11242
       8 -> 16        -0.10487
       8 -> 18        -0.36815
       8 -> 19         0.10804

 Excited State  39:      Singlet-A'    15.0730 eV   82.26 nm  f=0.0116  <S**2>=0.000
       5 -> 12         0.16187
       6 -> 13         0.14209
       7 -> 15         0.16696
       7 -> 16         0.17192
       8 -> 17         0.13894
       9 -> 25         0.57028

 Excited State  40:      Singlet-A"    15.2163 eV   81.48 nm  f=0.0493  <S**2>=0.000
       5 -> 11        -0.26566
       6 -> 12        -0.10250
       6 -> 14         0.16945
       7 -> 14         0.10226
       7 -> 17         0.48359
       8 -> 19         0.32995

 Excited State  41:      Singlet-A"    15.4255 eV   80.38 nm  f=0.1165  <S**2>=0.000
       7 -> 17        -0.20031
       8 -> 19         0.27989
       9 -> 26         0.49708
       9 -> 27         0.21626
       9 -> 28         0.22440

 Excited State  42:      Singlet-A'    15.4589 eV   80.20 nm  f=0.0989  <S**2>=0.000
       5 -> 12         0.17515
       6 -> 16        -0.27766
       8 -> 17         0.10050
       8 -> 20         0.56240
       9 -> 25        -0.17748

 Excited State  43:      Singlet-A'    15.5396 eV   79.79 nm  f=0.0307  <S**2>=0.000
       5 -> 12        -0.32215
       6 -> 15         0.48903
       7 -> 18        -0.18545
       7 -> 19        -0.16447
       8 -> 20         0.18519
       9 -> 30        -0.10985

 Excited State  44:      Singlet-A"    15.5901 eV   79.53 nm  f=0.0944  <S**2>=0.000
       7 -> 17         0.40321
       7 -> 20        -0.12686
       8 -> 19        -0.38136
       9 -> 26         0.34567
       9 -> 28         0.10177

 Excited State  45:      Singlet-A'    15.7184 eV   78.88 nm  f=0.2243  <S**2>=0.000
       5 -> 12        -0.25308
       6 -> 15        -0.35885
       6 -> 16         0.38839
       8 -> 20         0.24142
       9 -> 30        -0.25010

 Excited State  46:      Singlet-A"    15.8281 eV   78.33 nm  f=0.0266  <S**2>=0.000
       6 -> 17         0.18633
       9 -> 26        -0.29087
       9 -> 27         0.26101
       9 -> 28         0.51400
       9 -> 31         0.10601

 Excited State  47:      Singlet-A'    15.8934 eV   78.01 nm  f=0.0685  <S**2>=0.000
       6 -> 15         0.20888
       7 -> 18         0.62316
       9 -> 29        -0.17275

 Excited State  48:      Singlet-A"    16.0122 eV   77.43 nm  f=0.0368  <S**2>=0.000
       5 -> 13         0.57748
       5 -> 15        -0.15280
       7 -> 20        -0.24598
       8 -> 18        -0.13850
       8 -> 23         0.14557
       9 -> 27        -0.11610

 Excited State  49:      Singlet-A'    16.0853 eV   77.08 nm  f=0.0220  <S**2>=0.000
       5 -> 14        -0.19127
       6 -> 16         0.33278
       7 -> 19        -0.25450
       8 -> 20         0.10286
       9 -> 30         0.46268

 Excited State  50:      Singlet-A"    16.0886 eV   77.06 nm  f=0.0100  <S**2>=0.000
       5 -> 13         0.11488
       6 -> 17        -0.14825
       9 -> 27         0.58439
       9 -> 28        -0.30064

 Excited State  51:      Singlet-A'    16.1251 eV   76.89 nm  f=0.0419  <S**2>=0.000
       5 -> 12        -0.33227
       6 -> 15        -0.13593
       6 -> 16        -0.21107
       6 -> 18        -0.10190
       7 -> 15         0.10087
       7 -> 18         0.17501
       9 -> 29         0.42138
       9 -> 30         0.22552

 Excited State  52:      Singlet-A"    16.2445 eV   76.32 nm  f=0.0018  <S**2>=0.000
       6 -> 17         0.60564
       7 -> 20        -0.16432
       8 -> 21        -0.10213
       9 -> 26         0.13929
       9 -> 28        -0.19850

 Excited State  53:      Singlet-A'    16.3191 eV   75.97 nm  f=0.1785  <S**2>=0.000
       5 -> 14         0.23151
       6 -> 16         0.11336
       6 -> 18         0.17370
       7 -> 19         0.48333
       9 -> 29        -0.13549
       9 -> 30         0.29211

 Excited State  54:      Singlet-A'    16.4021 eV   75.59 nm  f=0.0614  <S**2>=0.000
       5 -> 12         0.28356
       5 -> 14         0.10749
       6 -> 15         0.13438
       6 -> 16         0.21814
       7 -> 19         0.14366
       8 -> 20         0.11258
       9 -> 29         0.47486
       9 -> 30        -0.12456

 Excited State  55:      Singlet-A"    16.4559 eV   75.34 nm  f=0.0155  <S**2>=0.000
       5 -> 13         0.26870
       5 -> 15         0.13293
       6 -> 17         0.19741
       7 -> 20         0.45249
       8 -> 21         0.35313

 Excited State  56:      Singlet-A'    16.5563 eV   74.89 nm  f=0.1327  <S**2>=0.000
       5 -> 14         0.54683
       6 -> 18        -0.14988
       6 -> 19        -0.13615
       7 -> 19        -0.26445
       8 -> 22         0.14090

 Excited State  57:      Singlet-A"    16.6555 eV   74.44 nm  f=0.1023  <S**2>=0.000
       5 -> 13        -0.11299
       5 -> 16        -0.18142
       6 -> 20        -0.10141
       7 -> 20        -0.32491
       8 -> 19         0.13450
       8 -> 21         0.53099

 Excited State  58:      Singlet-A'    16.8964 eV   73.38 nm  f=0.0180  <S**2>=0.000
       5 -> 17        -0.13767
       6 -> 18         0.53077
       6 -> 19        -0.17260
       7 -> 19        -0.16006
       8 -> 22         0.30337

 Excited State  59:      Singlet-A"    16.9808 eV   73.01 nm  f=0.0851  <S**2>=0.000
       5 -> 13        -0.11984
       5 -> 15        -0.36977
       5 -> 16        -0.14395
       6 -> 20         0.10642
       7 -> 20         0.18388
       8 -> 23         0.49337

 Excited State  60:      Singlet-A'    17.0986 eV   72.51 nm  f=0.0612  <S**2>=0.000
       5 -> 14        -0.21668
       6 -> 18        -0.29604
       7 -> 19         0.10091
       7 -> 21         0.16602
       8 -> 22         0.53029

 Excited State  61:      Singlet-A"    17.1784 eV   72.17 nm  f=0.0004  <S**2>=0.000
       5 -> 15         0.40399
       5 -> 16         0.15176
       5 -> 18         0.13138
       6 -> 20        -0.26019
       8 -> 23         0.41458
       9 -> 31        -0.17289

 Excited State  62:      Singlet-A"    17.2780 eV   71.76 nm  f=0.0007  <S**2>=0.000
       5 -> 16         0.54647
       6 -> 20         0.29502
       8 -> 21         0.19923
       9 -> 31         0.11858

 Excited State  63:      Singlet-A'    17.2966 eV   71.68 nm  f=0.1133  <S**2>=0.000
       6 -> 19         0.55937
       7 -> 21        -0.22309
       8 -> 22         0.18873
       9 -> 32        -0.18433
       9 -> 33         0.10870

 Excited State  64:      Singlet-A'    17.4056 eV   71.23 nm  f=0.0359  <S**2>=0.000
       6 -> 18        -0.10812
       6 -> 19         0.11650
       7 -> 21        -0.18060
       9 -> 30         0.12073
       9 -> 32         0.59779
       9 -> 33        -0.13951

 Excited State  65:      Singlet-A"    17.4899 eV   70.89 nm  f=0.0481  <S**2>=0.000
       5 -> 15         0.27685
       5 -> 16        -0.21580
       6 -> 20         0.19736
       7 -> 20        -0.11446
       8 -> 23         0.11689
       8 -> 24         0.18938
       9 -> 28        -0.11445
       9 -> 31         0.47758

 Excited State  66:      Singlet-A"    17.5118 eV   70.80 nm  f=0.1138  <S**2>=0.000
       5 -> 18        -0.10954
       8 -> 24         0.65096
       9 -> 31        -0.16183

 Excited State  67:      Singlet-A"    17.6343 eV   70.31 nm  f=0.0731  <S**2>=0.000
       5 -> 15         0.15808
       5 -> 16        -0.17266
       6 -> 20         0.48852
       7 -> 22        -0.12039
       9 -> 31        -0.40311

 Excited State  68:      Singlet-A'    17.8330 eV   69.53 nm  f=0.1761  <S**2>=0.000
       4 -> 10        -0.16284
       5 -> 17        -0.33598
       6 -> 19         0.20137
       7 -> 21         0.49090
       8 -> 22        -0.11456
       9 -> 32         0.10204
       9 -> 34        -0.11674

 Excited State  69:      Singlet-A'    18.0204 eV   68.80 nm  f=0.0008  <S**2>=0.000
       4 -> 10        -0.15756
       5 -> 17         0.54952
       5 -> 20         0.10436
       7 -> 21         0.24425
       7 -> 24         0.11713
       8 -> 22         0.14825
       9 -> 34        -0.11842

 Excited State  70:      Singlet-A"    18.0530 eV   68.68 nm  f=0.0194  <S**2>=0.000
       5 -> 15         0.12808
       5 -> 18        -0.25356
       6 -> 20         0.10438
       7 -> 22         0.58069
       8 -> 25        -0.17720

 Excited State  71:      Singlet-A'    18.1727 eV   68.23 nm  f=0.0238  <S**2>=0.000
       7 -> 23         0.62140
       9 -> 33        -0.25125

 Excited State  72:      Singlet-A"    18.2817 eV   67.82 nm  f=0.0002  <S**2>=0.000
       5 -> 15        -0.10132
       5 -> 18         0.45268
       7 -> 22         0.34800
       8 -> 25         0.34687

 Excited State  73:      Singlet-A'    18.3199 eV   67.68 nm  f=0.0003  <S**2>=0.000
       4 -> 10         0.10831
       7 -> 23         0.25338
       7 -> 24         0.15612
       9 -> 32         0.17618
       9 -> 33         0.56049
       9 -> 34         0.13877

 Excited State  74:      Singlet-A"    18.4343 eV   67.26 nm  f=0.0034  <S**2>=0.000
       5 -> 16        -0.12465
       5 -> 18        -0.37967
       8 -> 23         0.11694
       8 -> 25         0.54492

 Excited State  75:      Singlet-A'    18.4648 eV   67.15 nm  f=0.0180  <S**2>=0.000
       4 -> 10         0.57697
       6 -> 21         0.12167
       7 -> 24         0.10512
       9 -> 34        -0.31071

 Excited State  76:      Singlet-A'    18.5341 eV   66.90 nm  f=0.0312  <S**2>=0.000
       6 -> 19         0.11616
       7 -> 24         0.46898
       9 -> 33        -0.23698
       9 -> 34         0.40228

 Excited State  77:      Singlet-A"    18.6361 eV   66.53 nm  f=0.0335  <S**2>=0.000
       5 -> 19         0.64601
       5 -> 21        -0.13647

 Excited State  78:      Singlet-A'    18.6615 eV   66.44 nm  f=0.0385  <S**2>=0.000
       4 -> 10         0.19575
       5 -> 20         0.38232
       7 -> 21         0.11106
       7 -> 24        -0.35833
       9 -> 34         0.33044
       9 -> 36         0.11001

 Excited State  79:      Singlet-A'    18.7872 eV   65.99 nm  f=0.0046  <S**2>=0.000
       5 -> 20        -0.18477
       6 -> 19         0.10619
       6 -> 21         0.59839
       7 -> 24        -0.14751

 Excited State  80:      Singlet-A'    18.8552 eV   65.76 nm  f=0.0681  <S**2>=0.000
       5 -> 20         0.23605
       6 -> 21         0.16122
       8 -> 26         0.56887
       8 -> 28        -0.12070
       9 -> 34        -0.13573

 Excited State  81:      Singlet-A'    18.9943 eV   65.27 nm  f=0.0616  <S**2>=0.000
       4 -> 10        -0.10080
       5 -> 17        -0.10388
       5 -> 20         0.44383
       6 -> 21         0.15944
       7 -> 23         0.10705
       7 -> 24         0.16451
       7 -> 25         0.13273
       8 -> 26        -0.35381
       9 -> 34        -0.12716

 Excited State  82:      Singlet-A"    19.0070 eV   65.23 nm  f=0.0039  <S**2>=0.000
       6 -> 22         0.63268
       9 -> 35         0.20664
       9 -> 37        -0.16614

 Excited State  83:      Singlet-A"    19.0903 eV   64.95 nm  f=0.0089  <S**2>=0.000
       9 -> 35         0.57626
       9 -> 37         0.36219

 Excited State  84:      Singlet-A'    19.0980 eV   64.92 nm  f=0.0003  <S**2>=0.000
       6 -> 23         0.38525
       8 -> 27        -0.13262
       8 -> 28         0.11084
       9 -> 36         0.51714

 Excited State  85:      Singlet-A"    19.3060 eV   64.22 nm  f=0.0044  <S**2>=0.000
       6 -> 22         0.23602
       8 -> 29        -0.10614
       9 -> 35        -0.31900
       9 -> 37         0.54713

 Excited State  86:      Singlet-A'    19.3388 eV   64.11 nm  f=0.0182  <S**2>=0.000
       4 -> 11         0.57061
       6 -> 24         0.15343
       8 -> 27         0.20977
       8 -> 28        -0.19008
       9 -> 36         0.14373

 Excited State  87:      Singlet-A'    19.4507 eV   63.74 nm  f=0.0801  <S**2>=0.000
       6 -> 23         0.43016
       7 -> 25        -0.40192
       8 -> 26        -0.10133
       8 -> 28        -0.12837
       9 -> 36        -0.24900

 Excited State  88:      Singlet-A"    19.4800 eV   63.65 nm  f=0.0171  <S**2>=0.000
       7 -> 27        -0.10127
       8 -> 29         0.58804
       8 -> 30        -0.28480

 Excited State  89:      Singlet-A'    19.5707 eV   63.35 nm  f=0.0397  <S**2>=0.000
       4 -> 11        -0.22027
       6 -> 23        -0.22609
       6 -> 24         0.38560
       6 -> 25        -0.16872
       7 -> 25        -0.37295
       9 -> 36         0.15036
       9 -> 38         0.11979

 Excited State  90:      Singlet-A'    19.7054 eV   62.92 nm  f=0.2137  <S**2>=0.000
       6 -> 24        -0.24312
       7 -> 25        -0.25780
       8 -> 26         0.10568
       8 -> 27         0.30763
       8 -> 28         0.46029

 Excited State  91:      Singlet-A'    19.7223 eV   62.86 nm  f=0.0985  <S**2>=0.000
       4 -> 11        -0.18366
       6 -> 23         0.21143
       6 -> 24         0.33524
       7 -> 25         0.13982
       7 -> 29        -0.12635
       8 -> 27         0.44859

 Excited State  92:      Singlet-A"    19.7775 eV   62.69 nm  f=0.0787  <S**2>=0.000
       4 -> 12         0.13015
       8 -> 29         0.28654
       8 -> 30         0.58478

 Excited State  93:      Singlet-A'    19.9578 eV   62.12 nm  f=0.0678  <S**2>=0.000
       4 -> 11         0.16828
       5 -> 22        -0.22821
       6 -> 24         0.32398
       7 -> 29         0.15893
       8 -> 27        -0.21598

 The electronic state is 1-A'.
 Alpha  occ. eigenvalues --  -14.42620 -10.31297  -0.96859  -0.74942  -0.58105
 Alpha  occ. eigenvalues --   -0.52875  -0.49075  -0.45130  -0.32299
 Alpha virt. eigenvalues --    0.09379   0.13087   0.16635   0.18422   0.20036
 Alpha virt. eigenvalues --    0.22316   0.23114   0.24340   0.27346   0.29293
 Alpha virt. eigenvalues --    0.29627   0.33929   0.34718   0.36033   0.37003

 Mulliken charges:
               1
     1  C    0.558303
     2  N   -0.323963
     3  H   -0.031854
     4  H   -0.105088
     5  H   -0.105088
     6  H    0.003846
     7  H    0.003846
 Sum of Mulliken charges =  -0.00000

 Dipole moment (field-independent basis, Debye):
    X=              1.2807    Y=              0.3694    Z=             -0.0000  Tot=              1.3329
 Quadrupole moment (field-independent basis, Debye-Ang):
   XX=            -15.0087   YY=            -14.2989   ZZ=            -12.6185
   XY=             -2.1096   XZ=              0.0000   YZ=              0.0000

 Normal termination of Gaussian 16 at Mon Mar 21 16:01:03 2022.
