 Gaussian 16, Revision C.01,
 Gaussian 16:  EM64L-G16RevC.01  3-Jul-2019

 ----------------------------------------------------------------------
 #P TD(Nstates=10000) wB97XD/Gen SCF(maxcycles=100) Int(Grid=ultrafine)
 ----------------------------------------------------------------------

 ---------------------
 xGDB7_00001_tier4.com
 ---------------------
 Symbolic Z-matrix:
 Charge =  0 Multiplicity = 1

                         Standard orientation:
 ---------------------------------------------------------------------
 Center     Atomic      Atomic             Coordinates (Angstroms)
 Number     Number       Type             X           Y           Z
 ---------------------------------------------------------------------
      1          9           0       -1.139724   -0.269725    0.000000
      2          6           0        0.000000    0.430281    0.000000
      3          6           0        1.180852   -0.148760    0.000000
      4          1           0       -0.180450    1.498331    0.000000
      5          1           0        1.283634   -1.225170    0.000000
      6          1           0        2.069222    0.465238    0.000000
 ---------------------------------------------------------------------

 SCF Done:  E(RwB97XD) =  -177.646195118     A.U. after   14 cycles

 Excitation energies and oscillator strengths:

 Excited State   1:      Singlet-A"     7.7151 eV  160.70 nm  f=0.0596  <S**2>=0.000
      12 -> 14         0.69354
 This state for optimization and/or second-order correction.
 Total Energy, E(TD-HF/TD-DFT) =  -177.362669893
 Copying the excited state density for this state as the 1-particle RhoCI density.

 Excited State   2:      Singlet-A'     7.8026 eV  158.90 nm  f=0.3378  <S**2>=0.000
      12 -> 13         0.69769

 Excited State   3:      Singlet-A"     8.4193 eV  147.26 nm  f=0.0078  <S**2>=0.000
      12 -> 15         0.65971
      12 -> 17        -0.18323

 Excited State   4:      Singlet-A"     9.0169 eV  137.50 nm  f=0.0001  <S**2>=0.000
      11 -> 13         0.66634
      12 -> 16        -0.20362

 Excited State   5:      Singlet-A"     9.1531 eV  135.46 nm  f=0.0037  <S**2>=0.000
      11 -> 13         0.20630
      12 -> 15        -0.17823
      12 -> 16         0.59090
      12 -> 17        -0.20911
      12 -> 21         0.12176

 Excited State   6:      Singlet-A"     9.6588 eV  128.36 nm  f=0.0057  <S**2>=0.000
      10 -> 13         0.20035
      12 -> 15         0.14484
      12 -> 16         0.23077
      12 -> 17         0.59788

 Excited State   7:      Singlet-A"     9.9687 eV  124.37 nm  f=0.0019  <S**2>=0.000
      10 -> 13         0.67368
      12 -> 17        -0.18516

 Excited State   8:      Singlet-A"    10.5621 eV  117.39 nm  f=0.0261  <S**2>=0.000
      12 -> 18         0.66285
      12 -> 21         0.15034

 Excited State   9:      Singlet-A'    10.7424 eV  115.42 nm  f=0.0009  <S**2>=0.000
      11 -> 14        -0.43604
      11 -> 15        -0.19296
      12 -> 19         0.49451

 Excited State  10:      Singlet-A'    10.8049 eV  114.75 nm  f=0.0137  <S**2>=0.000
      11 -> 14         0.44811
      11 -> 15         0.18708
      11 -> 16         0.10648
      12 -> 19         0.48101

 Excited State  11:      Singlet-A"    10.9656 eV  113.07 nm  f=0.1084  <S**2>=0.000
       8 -> 13         0.11762
      12 -> 18        -0.13092
      12 -> 20         0.60973
      12 -> 21         0.29012

 Excited State  12:      Singlet-A'    11.5327 eV  107.51 nm  f=0.1027  <S**2>=0.000
      10 -> 14         0.48112
      10 -> 15        -0.16257
      11 -> 14        -0.21016
      11 -> 15         0.39068
      11 -> 16         0.15012

 Excited State  13:      Singlet-A"    11.6906 eV  106.05 nm  f=0.0140  <S**2>=0.000
      12 -> 16        -0.15286
      12 -> 20        -0.28973
      12 -> 21         0.58876

 Excited State  14:      Singlet-A'    11.7404 eV  105.60 nm  f=0.0363  <S**2>=0.000
      11 -> 16         0.17827
      12 -> 22         0.65399

 Excited State  15:      Singlet-A'    11.8537 eV  104.60 nm  f=0.1423  <S**2>=0.000
      10 -> 14        -0.40702
      11 -> 14        -0.17359
      11 -> 15         0.47465
      11 -> 16        -0.15599

 Excited State  16:      Singlet-A"    12.1178 eV  102.32 nm  f=0.0385  <S**2>=0.000
       8 -> 13         0.66918
      12 -> 20        -0.12904
      12 -> 23        -0.11867

 Excited State  17:      Singlet-A'    12.1252 eV  102.25 nm  f=0.1825  <S**2>=0.000
      10 -> 14        -0.15924
      10 -> 15         0.20418
      11 -> 14        -0.13375
      11 -> 16         0.56242
      11 -> 17        -0.17262
      11 -> 21         0.10538
      12 -> 22        -0.14345

 Excited State  18:      Singlet-A"    12.3624 eV  100.29 nm  f=0.0003  <S**2>=0.000
       8 -> 13         0.12548
      12 -> 23         0.67372

 Excited State  19:      Singlet-A'    12.3661 eV  100.26 nm  f=0.0420  <S**2>=0.000
       9 -> 13         0.66775

 Excited State  20:      Singlet-A'    12.4819 eV   99.33 nm  f=0.1106  <S**2>=0.000
      10 -> 14         0.22173
      10 -> 15         0.62062
      11 -> 16        -0.12986

 Excited State  21:      Singlet-A'    13.0117 eV   95.29 nm  f=0.0854  <S**2>=0.000
       8 -> 14         0.11579
      11 -> 15         0.12219
      11 -> 16         0.19698
      11 -> 17         0.60979

 Excited State  22:      Singlet-A'    13.2623 eV   93.49 nm  f=0.0466  <S**2>=0.000
       8 -> 14         0.12087
      10 -> 16         0.11590
      10 -> 17         0.30198
      12 -> 24         0.57761

 Excited State  23:      Singlet-A"    13.3191 eV   93.09 nm  f=0.0519  <S**2>=0.000
       9 -> 14         0.59098
       9 -> 15         0.28374
       9 -> 16         0.19667

 Excited State  24:      Singlet-A'    13.4085 eV   92.47 nm  f=0.1748  <S**2>=0.000
      10 -> 16         0.59453
      10 -> 17        -0.24007
      10 -> 18        -0.13190
      11 -> 17         0.11432
      11 -> 18         0.12627

 Excited State  25:      Singlet-A"    13.4405 eV   92.25 nm  f=0.0054  <S**2>=0.000
       7 -> 13         0.60568
      11 -> 19        -0.31692
      12 -> 25        -0.11158

 Excited State  26:      Singlet-A"    13.4997 eV   91.84 nm  f=0.0395  <S**2>=0.000
       7 -> 13         0.31628
      11 -> 19         0.61446

 Excited State  27:      Singlet-A"    13.6250 eV   91.00 nm  f=0.0150  <S**2>=0.000
       7 -> 13         0.11330
      12 -> 25         0.61428
      12 -> 27        -0.28015

 Excited State  28:      Singlet-A'    13.7079 eV   90.45 nm  f=0.0556  <S**2>=0.000
       8 -> 14         0.10219
       8 -> 16         0.10157
      10 -> 17         0.22448
      11 -> 18         0.54844
      11 -> 20         0.25743
      12 -> 24        -0.14702

 Excited State  29:      Singlet-A'    13.7602 eV   90.10 nm  f=0.0007  <S**2>=0.000
       8 -> 15        -0.17701
      10 -> 16        -0.18411
      10 -> 17        -0.33923
      11 -> 18         0.34415
      11 -> 20        -0.32629
      12 -> 24         0.20665

 Excited State  30:      Singlet-A"    14.0243 eV   88.41 nm  f=0.0080  <S**2>=0.000
       9 -> 16        -0.12582
       9 -> 17         0.10187
      12 -> 25         0.28546
      12 -> 27         0.59022

 Excited State  31:      Singlet-A'    14.1065 eV   87.89 nm  f=0.0029  <S**2>=0.000
       8 -> 14         0.60751
      10 -> 17        -0.15566
      11 -> 20        -0.12013
      12 -> 26        -0.20334

 Excited State  32:      Singlet-A'    14.1649 eV   87.53 nm  f=0.1006  <S**2>=0.000
       8 -> 15         0.12022
      10 -> 16        -0.12205
      10 -> 17        -0.31961
      10 -> 20         0.18231
      11 -> 20         0.46577
      11 -> 21        -0.12252
      12 -> 24         0.19271
      12 -> 26         0.15130

 Excited State  33:      Singlet-A'    14.3713 eV   86.27 nm  f=0.0251  <S**2>=0.000
       8 -> 14         0.15629
       8 -> 15         0.10672
      10 -> 16         0.17032
      10 -> 18         0.25469
      11 -> 20        -0.16631
      11 -> 21        -0.17272
      12 -> 26         0.51295

 Excited State  34:      Singlet-A"    14.4099 eV   86.04 nm  f=0.0015  <S**2>=0.000
       9 -> 14        -0.29164
       9 -> 15         0.56735
       9 -> 17        -0.24033
       9 -> 18        -0.10765

 Excited State  35:      Singlet-A'    14.4289 eV   85.93 nm  f=0.0586  <S**2>=0.000
       8 -> 15        -0.15375
      11 -> 21         0.55296
      12 -> 26         0.30593

 Excited State  36:      Singlet-A"    14.6007 eV   84.92 nm  f=0.0011  <S**2>=0.000
       9 -> 16        -0.23092
      10 -> 19         0.49905
      10 -> 22         0.12575
      11 -> 22        -0.37638

 Excited State  37:      Singlet-A'    14.6651 eV   84.54 nm  f=0.1760  <S**2>=0.000
       8 -> 15        -0.32227
      10 -> 17        -0.10285
      10 -> 18         0.51266
      11 -> 20         0.14256
      12 -> 26        -0.12663

 Excited State  38:      Singlet-A"    14.6973 eV   84.36 nm  f=0.0102  <S**2>=0.000
       9 -> 14        -0.13371
       9 -> 15        -0.14031
       9 -> 16         0.55284
      10 -> 19         0.27593
      12 -> 27         0.16185

 Excited State  39:      Singlet-A'    14.7477 eV   84.07 nm  f=0.0363  <S**2>=0.000
       8 -> 14        -0.11177
       8 -> 15         0.44390
       8 -> 17        -0.16110
      10 -> 18         0.22469
      10 -> 20         0.17190
      10 -> 21         0.17015
      11 -> 21         0.26138
      12 -> 26        -0.14762

 Excited State  40:      Singlet-A"    14.9105 eV   83.15 nm  f=0.0006  <S**2>=0.000
       9 -> 16        -0.12688
      10 -> 19         0.32886
      10 -> 24         0.10438
      11 -> 22         0.56882
      11 -> 24        -0.11054

 Excited State  41:      Singlet-A'    14.9885 eV   82.72 nm  f=0.0371  <S**2>=0.000
       7 -> 14        -0.20537
       7 -> 15        -0.11407
       8 -> 15        -0.25854
       8 -> 16         0.11526
      10 -> 20         0.52247
      10 -> 21         0.14539

 Excited State  42:      Singlet-A"    15.3198 eV   80.93 nm  f=0.0271  <S**2>=0.000
       9 -> 17         0.16556
      12 -> 27        -0.10645
      12 -> 28         0.63456
      12 -> 29         0.12494

 Excited State  43:      Singlet-A'    15.3583 eV   80.73 nm  f=0.0181  <S**2>=0.000
       7 -> 14        -0.18880
       8 -> 18         0.11885
       9 -> 19         0.14482
      10 -> 20        -0.12470
      10 -> 21        -0.12101
      11 -> 23         0.60445

 Excited State  44:      Singlet-A'    15.4663 eV   80.16 nm  f=0.1363  <S**2>=0.000
       7 -> 14         0.43860
       7 -> 15         0.10566
       8 -> 16        -0.35806
       8 -> 17         0.10021
       9 -> 19         0.12108
      10 -> 20         0.23587
      11 -> 23         0.14970

 Excited State  45:      Singlet-A'    15.5067 eV   79.96 nm  f=0.0587  <S**2>=0.000
       7 -> 14         0.37497
       8 -> 16         0.38854
       8 -> 17        -0.27672
      10 -> 18        -0.18292
      10 -> 21         0.12986
      11 -> 23         0.14325

 Excited State  46:      Singlet-A"    15.5576 eV   79.69 nm  f=0.0553  <S**2>=0.000
       6 -> 13        -0.22402
       8 -> 19        -0.10064
      10 -> 19        -0.12004
      10 -> 22         0.61744

 Excited State  47:      Singlet-A"    15.6422 eV   79.26 nm  f=0.0248  <S**2>=0.000
       6 -> 13        -0.10576
       9 -> 15         0.19911
       9 -> 16         0.18452
       9 -> 17         0.53490
       9 -> 18         0.10843
       9 -> 20         0.14882
       9 -> 21        -0.13165
       9 -> 27         0.11433
      12 -> 28        -0.19973

 Excited State  48:      Singlet-A'    15.7394 eV   78.77 nm  f=0.0268  <S**2>=0.000
       6 -> 14        -0.10889
       8 -> 15         0.11045
       8 -> 16         0.29857
       8 -> 17         0.53452
       9 -> 19         0.16860
      11 -> 27         0.10644

 Excited State  49:      Singlet-A'    15.9612 eV   77.68 nm  f=0.0380  <S**2>=0.000
       7 -> 14        -0.11727
       7 -> 15         0.10585
       7 -> 16         0.19668
       9 -> 19         0.24094
      10 -> 20        -0.11044
      10 -> 21         0.48942
      11 -> 21        -0.10325
      12 -> 31        -0.23551

 Excited State  50:      Singlet-A"    15.9929 eV   77.52 nm  f=0.0092  <S**2>=0.000
       6 -> 13        -0.25498
       9 -> 18         0.15484
      12 -> 29         0.53537
      12 -> 30        -0.29733

 Excited State  51:      Singlet-A'    16.0646 eV   77.18 nm  f=0.0492  <S**2>=0.000
       7 -> 16        -0.22078
       9 -> 19         0.45866
      11 -> 23        -0.16140
      12 -> 31         0.36105

 Excited State  52:      Singlet-A"    16.1361 eV   76.84 nm  f=0.1097  <S**2>=0.000
       6 -> 13         0.41859
       9 -> 17         0.11497
       9 -> 20        -0.22600
      10 -> 22         0.15924
      12 -> 28        -0.15653
      12 -> 29         0.37037
      12 -> 30         0.16740

 Excited State  53:      Singlet-A"    16.1726 eV   76.66 nm  f=0.0156  <S**2>=0.000
       6 -> 13        -0.18965
       8 -> 19         0.10800
       9 -> 17        -0.14102
       9 -> 18         0.14123
       9 -> 20         0.16299
      11 -> 24        -0.20124
      12 -> 29         0.11330
      12 -> 30         0.52091
      12 -> 32        -0.12985

 Excited State  54:      Singlet-A'    16.2114 eV   76.48 nm  f=0.0232  <S**2>=0.000
       7 -> 16         0.18602
       8 -> 16        -0.10941
       9 -> 19        -0.24928
      10 -> 21         0.23227
      11 -> 25        -0.11443
      12 -> 31         0.52887

 Excited State  55:      Singlet-A'    16.2312 eV   76.39 nm  f=0.1209  <S**2>=0.000
       7 -> 14        -0.13088
       7 -> 15         0.56632
       7 -> 17        -0.10781
       7 -> 18        -0.13154
      10 -> 21        -0.11464
      10 -> 23         0.21620

 Excited State  56:      Singlet-A"    16.2858 eV   76.13 nm  f=0.0055  <S**2>=0.000
       8 -> 19        -0.24492
      10 -> 19         0.12405
      10 -> 24        -0.11739
      11 -> 24         0.54059
      12 -> 30         0.25439

 Excited State  57:      Singlet-A"    16.4287 eV   75.47 nm  f=0.0324  <S**2>=0.000
       6 -> 13         0.19342
       9 -> 18         0.57876
       9 -> 21         0.16463
       9 -> 23         0.16453
      12 -> 29        -0.12377
      12 -> 32         0.13068

 Excited State  58:      Singlet-A'    16.4831 eV   75.22 nm  f=0.2060  <S**2>=0.000
       7 -> 15        -0.21192
       7 -> 16         0.14674
       8 -> 18         0.22817
      10 -> 18         0.11227
      10 -> 23         0.54451
      11 -> 23        -0.13300

 Excited State  59:      Singlet-A'    16.5779 eV   74.79 nm  f=0.1439  <S**2>=0.000
       7 -> 16         0.51128
       8 -> 17        -0.12568
       9 -> 19         0.17923
      10 -> 21        -0.23235
      10 -> 23        -0.24805

 Excited State  60:      Singlet-A"    16.6553 eV   74.44 nm  f=0.1671  <S**2>=0.000
       6 -> 13         0.25368
       9 -> 17        -0.13065
       9 -> 20         0.56081
       9 -> 21        -0.21022

 Excited State  61:      Singlet-A'    16.7196 eV   74.16 nm  f=0.1024  <S**2>=0.000
       7 -> 15         0.15634
       7 -> 16         0.12904
       8 -> 20        -0.23297
       9 -> 19        -0.11254
      11 -> 25         0.45858
      11 -> 27        -0.31087

 Excited State  62:      Singlet-A"    16.7639 eV   73.96 nm  f=0.0005  <S**2>=0.000
       7 -> 19        -0.12443
       8 -> 19         0.19662
      10 -> 24        -0.42771
      12 -> 32         0.44431

 Excited State  63:      Singlet-A'    16.7654 eV   73.95 nm  f=0.0120  <S**2>=0.000
       7 -> 15         0.11294
       8 -> 18         0.56537
       8 -> 20         0.17756
       8 -> 21         0.18946
      10 -> 23        -0.13830

 Excited State  64:      Singlet-A"    16.8229 eV   73.70 nm  f=0.0126  <S**2>=0.000
       8 -> 19        -0.19115
      10 -> 24         0.39607
      12 -> 32         0.49112
      12 -> 33         0.11040

 Excited State  65:      Singlet-A"    17.0113 eV   72.88 nm  f=0.0007  <S**2>=0.000
       9 -> 17         0.14016
       9 -> 18        -0.17405
       9 -> 20         0.22315
       9 -> 21         0.59785
      12 -> 33        -0.14634

 Excited State  66:      Singlet-A"    17.0328 eV   72.79 nm  f=0.0103  <S**2>=0.000
       7 -> 19         0.11027
       8 -> 19         0.55546
      10 -> 24         0.20268
      11 -> 24         0.33474

 Excited State  67:      Singlet-A'    17.1044 eV   72.49 nm  f=0.0028  <S**2>=0.000
       6 -> 14        -0.18915
       6 -> 15        -0.12906
       8 -> 18        -0.13983
       8 -> 20         0.43571
      11 -> 27        -0.41080

 Excited State  68:      Singlet-A"    17.1600 eV   72.25 nm  f=0.0248  <S**2>=0.000
       8 -> 22         0.27024
      11 -> 26         0.61224

 Excited State  69:      Singlet-A'    17.2860 eV   71.73 nm  f=0.0358  <S**2>=0.000
       6 -> 14        -0.31524
       6 -> 15        -0.11839
       8 -> 20         0.14793
       8 -> 21         0.13982
      11 -> 25         0.41630
      11 -> 27         0.34719

 Excited State  70:      Singlet-A'    17.4700 eV   70.97 nm  f=0.0137  <S**2>=0.000
       6 -> 14        -0.39173
       7 -> 17         0.39467
       8 -> 16        -0.10964
       8 -> 20        -0.22242
       9 -> 22        -0.11542
      10 -> 27        -0.10941
      11 -> 25        -0.18068

 Excited State  71:      Singlet-A"    17.5276 eV   70.74 nm  f=0.0686  <S**2>=0.000
       6 -> 13         0.12009
       9 -> 21         0.11388
      12 -> 32        -0.11866
      12 -> 33         0.63152

 Excited State  72:      Singlet-A'    17.5418 eV   70.68 nm  f=0.0019  <S**2>=0.000
       7 -> 17        -0.22152
       7 -> 20         0.16773
      10 -> 20        -0.10111
      10 -> 25         0.58560

 Excited State  73:      Singlet-A'    17.6198 eV   70.37 nm  f=0.0121  <S**2>=0.000
       6 -> 14        -0.26619
       6 -> 15        -0.11008
       7 -> 16        -0.11137
       7 -> 17        -0.23178
       8 -> 20        -0.20578
       9 -> 22         0.42468
      10 -> 25        -0.17009
      10 -> 27         0.17189

 Excited State  74:      Singlet-A'    17.8540 eV   69.44 nm  f=0.0262  <S**2>=0.000
       6 -> 15         0.11688
       8 -> 18        -0.13627
       8 -> 20        -0.12179
       8 -> 21         0.52842
      12 -> 34        -0.32590

 Excited State  75:      Singlet-A'    17.9066 eV   69.24 nm  f=0.0222  <S**2>=0.000
       6 -> 14         0.14147
       6 -> 15         0.10787
       7 -> 17         0.27892
       8 -> 20         0.12208
       9 -> 22         0.46427
      10 -> 27        -0.15800
      11 -> 27         0.10298
      11 -> 28        -0.13439
      12 -> 34         0.15332

 Excited State  76:      Singlet-A"    17.9553 eV   69.05 nm  f=0.0727  <S**2>=0.000
       8 -> 22         0.50192
       9 -> 23         0.28969
      10 -> 24         0.12130
      10 -> 26         0.25479
      11 -> 26        -0.18848

 Excited State  77:      Singlet-A"    17.9762 eV   68.97 nm  f=0.0271  <S**2>=0.000
       8 -> 22        -0.23314
       9 -> 18        -0.16210
       9 -> 23         0.58289
      10 -> 26        -0.12250
      11 -> 26         0.10823
      12 -> 35         0.15633

 Excited State  78:      Singlet-A"    18.0690 eV   68.62 nm  f=0.0228  <S**2>=0.000
       7 -> 19         0.65637
      10 -> 24        -0.16023

 Excited State  79:      Singlet-A'    18.0759 eV   68.59 nm  f=0.0106  <S**2>=0.000
       6 -> 15        -0.10232
       7 -> 17         0.21886
       7 -> 18         0.21724
       7 -> 20         0.14917
       8 -> 23         0.11440
      10 -> 25         0.10006
      10 -> 27         0.52496
      12 -> 34        -0.12130

 Excited State  80:      Singlet-A"    18.2177 eV   68.06 nm  f=0.0498  <S**2>=0.000
       7 -> 22        -0.17566
       8 -> 22        -0.28115
       8 -> 24         0.12392
      10 -> 26         0.56383
      11 -> 26         0.13918

 Excited State  81:      Singlet-A'    18.2246 eV   68.03 nm  f=0.0773  <S**2>=0.000
       6 -> 16         0.10148
       7 -> 17        -0.11057
       7 -> 18         0.26906
       7 -> 20         0.14290
       8 -> 21         0.26304
      11 -> 28         0.12126
      12 -> 34         0.48053

 Excited State  82:      Singlet-A'    18.2739 eV   67.85 nm  f=0.0410  <S**2>=0.000
       6 -> 14        -0.22150
       6 -> 15         0.51584
       6 -> 17        -0.16701
       7 -> 18        -0.12568
       7 -> 20         0.10504
       8 -> 23         0.14732
      10 -> 27         0.16861
      11 -> 28        -0.11947

 Excited State  83:      Singlet-A"    18.3106 eV   67.71 nm  f=0.0480  <S**2>=0.000
       9 -> 23        -0.15294
      12 -> 35         0.66295

 Excited State  84:      Singlet-A'    18.3141 eV   67.70 nm  f=0.0190  <S**2>=0.000
       7 -> 17        -0.14106
       7 -> 18         0.48496
       8 -> 21        -0.14433
       8 -> 23         0.19231
      10 -> 27        -0.19388
      11 -> 28        -0.17856
      12 -> 34        -0.19102

 Excited State  85:      Singlet-A'    18.4361 eV   67.25 nm  f=0.0924  <S**2>=0.000
       6 -> 15        -0.25341
       7 -> 18        -0.22159
       8 -> 23         0.42851
      11 -> 28        -0.29017
      11 -> 29         0.17000
      12 -> 34         0.11708

 Excited State  86:      Singlet-A'    18.5445 eV   66.86 nm  f=0.0247  <S**2>=0.000
       6 -> 16        -0.11459
       7 -> 20         0.52110
       8 -> 23        -0.24585
      10 -> 25        -0.20593
      11 -> 28        -0.11508
      11 -> 30        -0.15293

 Excited State  87:      Singlet-A'    18.7302 eV   66.19 nm  f=0.0657  <S**2>=0.000
       7 -> 20         0.19977
       7 -> 21         0.30649
       8 -> 23         0.26831
      10 -> 27        -0.12401
      11 -> 28         0.42920

 Excited State  88:      Singlet-A"    18.7642 eV   66.07 nm  f=0.0023  <S**2>=0.000
      12 -> 36         0.52429
      12 -> 37         0.42600

 Excited State  89:      Singlet-A'    18.8613 eV   65.73 nm  f=0.0237  <S**2>=0.000

 The electronic state is 1-A'.
 Alpha  occ. eigenvalues --  -24.84017 -10.38963 -10.30417  -1.32059  -0.87084
 Alpha  occ. eigenvalues --   -0.70577  -0.62984  -0.58107  -0.56362  -0.50149
 Alpha  occ. eigenvalues --   -0.46880  -0.35799
 Alpha virt. eigenvalues --    0.07563   0.09631   0.11578   0.16143   0.17633
 Alpha virt. eigenvalues --    0.19909   0.20626   0.22183   0.24047   0.25436
 Alpha virt. eigenvalues --    0.26112   0.30461   0.31861   0.33745   0.34179

 Mulliken charges:
               1
     1  F   -0.449051
     2  C    0.609423
     3  C    0.002791
     4  H   -0.092004
     5  H   -0.081875
     6  H    0.010717
 Sum of Mulliken charges =  -0.00000

 Dipole moment (field-independent basis, Debye):
    X=              1.1953    Y=              0.7781    Z=              0.0000  Tot=              1.4263
 Quadrupole moment (field-independent basis, Debye-Ang):
   XX=            -17.6251   YY=            -15.5793   ZZ=            -18.9741
   XY=             -0.8846   XZ=              0.0000   YZ=              0.0000

 Normal termination of Gaussian 16 at Thu Aug 19 03:59:31 2021.
