 Gaussian 16, Revision C.01,
 Gaussian 16:  EM64L-G16RevC.01  3-Jul-2019

 ----------------------------------------------------------------------
 #P TD(Nstates=10000) wB97XD/Gen SCF(maxcycles=100) Int(Grid=ultrafine)
 ----------------------------------------------------------------------

 ---------------------
 xGDB7_00001_tier4.com
 ---------------------
 Symbolic Z-matrix:
 Charge =  0 Multiplicity = 1

                         Standard orientation:
 ---------------------------------------------------------------------
 Center     Atomic      Atomic             Coordinates (Angstroms)
 Number     Number       Type             X           Y           Z
 ---------------------------------------------------------------------
      1          6           0        0.000000    0.000000    0.597322
      2          6           0        0.000000    0.000000   -0.597322
      3          1           0        0.000000    0.000000    1.661338
      4          1           0        0.000000    0.000000   -1.661338
 ---------------------------------------------------------------------

 SCF Done:  E(RwB97XD) =  -77.2415446677     A.U. after   12 cycles

 Excitation energies and oscillator strengths:

 Excited state symmetry could not be determined.
 Excited State   1:      Singlet-?Sym    6.8549 eV  180.87 nm  f=0.0000  <S**2>=0.000
       6 ->  9        -0.49675
       7 -> 10         0.49675
 This state for optimization and/or second-order correction.
 Total Energy, E(TD-HF/TD-DFT) =  -76.9896332160
 Copying the excited state density for this state as the 1-particle RhoCI density.

 Excited state symmetry could not be determined.
 Excited State   2:      Singlet-?Sym    7.1021 eV  174.57 nm  f=0.0000  <S**2>=0.000
       6 ->  9         0.49789
       7 -> 10         0.49789

 Excited state symmetry could not be determined.
 Excited State   3:      Singlet-?Sym    7.1021 eV  174.57 nm  f=0.0000  <S**2>=0.000
       6 -> 10        -0.49789
       7 ->  9         0.49789

 Excited state symmetry could not be determined.
 Excited State   4:      Singlet-?Sym    8.5253 eV  145.43 nm  f=0.1220  <S**2>=0.000
       6 ->  8        -0.26996
       7 ->  8         0.64749

 Excited state symmetry could not be determined.
 Excited State   5:      Singlet-?Sym    8.5253 eV  145.43 nm  f=0.1220  <S**2>=0.000
       6 ->  8         0.64749
       7 ->  8         0.26996

 Excited state symmetry could not be determined.
 Excited State   6:      Singlet-?Sym    9.0817 eV  136.52 nm  f=0.0000  <S**2>=0.000
       6 -> 11         0.69185
       7 -> 11         0.10276

 Excited state symmetry could not be determined.
 Excited State   7:      Singlet-?Sym    9.0817 eV  136.52 nm  f=0.0000  <S**2>=0.000
       6 -> 11        -0.10276
       7 -> 11         0.69185

 Excited state symmetry could not be determined.
 Excited State   8:      Singlet-?Sym   10.3292 eV  120.03 nm  f=0.0310  <S**2>=0.000
       6 -> 12        -0.29517
       7 -> 12         0.63106

 Excited state symmetry could not be determined.
 Excited State   9:      Singlet-?Sym   10.3292 eV  120.03 nm  f=0.0310  <S**2>=0.000
       6 -> 12         0.63106
       7 -> 12         0.29517

 Excited state symmetry could not be determined.
 Excited State  10:      Singlet-?Sym   10.4611 eV  118.52 nm  f=0.8788  <S**2>=0.000
       6 -> 10         0.48131
       6 -> 18         0.12011
       7 ->  9         0.48131
       7 -> 19         0.12011

 Excited state symmetry could not be determined.
 Excited State  11:      Singlet-?Sym   11.8528 eV  104.60 nm  f=0.0000  <S**2>=0.000
       5 ->  9        -0.11241
       6 -> 13         0.27571
       7 -> 13         0.63028

 Excited state symmetry could not be determined.
 Excited State  12:      Singlet-?Sym   11.8528 eV  104.60 nm  f=0.0000  <S**2>=0.000
       5 -> 10        -0.11241
       6 -> 13         0.63028
       7 -> 13        -0.27571

 Excited state symmetry could not be determined.
 Excited State  13:      Singlet-?Sym   12.1501 eV  102.04 nm  f=0.0000  <S**2>=0.000
       6 -> 15        -0.49883
       7 -> 14         0.49883

 Excited state symmetry could not be determined.
 Excited State  14:      Singlet-?Sym   12.1501 eV  102.04 nm  f=0.0000  <S**2>=0.000
       6 -> 14         0.49883
       7 -> 15         0.49883

 Excited state symmetry could not be determined.
 Excited State  15:      Singlet-?Sym   12.2957 eV  100.84 nm  f=0.0000  <S**2>=0.000
       6 -> 14         0.49922
       7 -> 15        -0.49922

 Excited state symmetry could not be determined.
 Excited State  16:      Singlet-?Sym   12.8870 eV   96.21 nm  f=0.0000  <S**2>=0.000
       5 ->  9        -0.32344
       5 -> 10         0.60689
       6 -> 13         0.11007

 Excited state symmetry could not be determined.
 Excited State  17:      Singlet-?Sym   12.8870 eV   96.21 nm  f=0.0000  <S**2>=0.000
       5 ->  9         0.60689
       5 -> 10         0.32344
       7 -> 13         0.11007

 Excited state symmetry could not be determined.
 Excited State  18:      Singlet-?Sym   12.9043 eV   96.08 nm  f=0.0000  <S**2>=0.000
       5 -> 12        -0.16169
       6 -> 15         0.47853
       7 -> 14         0.47853

 Excited state symmetry could not be determined.
 Excited State  19:      Singlet-?Sym   13.1789 eV   94.08 nm  f=0.0000  <S**2>=0.000
       6 -> 16        -0.30752
       6 -> 17        -0.39433
       7 -> 16         0.39433
       7 -> 17        -0.30752

 Excited state symmetry could not be determined.
 Excited State  20:      Singlet-?Sym   13.1789 eV   94.08 nm  f=0.0000  <S**2>=0.000
       6 -> 16         0.39433
       6 -> 17        -0.30752
       7 -> 16         0.30752
       7 -> 17         0.39433

 Excited state symmetry could not be determined.
 Excited State  21:      Singlet-?Sym   13.8148 eV   89.75 nm  f=0.2746  <S**2>=0.000
       4 ->  9         0.14649
       4 -> 10        -0.20321
       6 -> 16        -0.37723
       6 -> 17        -0.27195
       7 -> 16        -0.27195
       7 -> 17         0.37724

 Excited state symmetry could not be determined.
 Excited State  22:      Singlet-?Sym   13.8148 eV   89.75 nm  f=0.2746  <S**2>=0.000
       4 ->  9        -0.20321
       4 -> 10        -0.14649
       6 -> 16        -0.27195
       6 -> 17         0.37724
       7 -> 16         0.37723
       7 -> 17         0.27195

 Excited State  23:      Singlet-SGG   14.2892 eV   86.77 nm  f=0.0000  <S**2>=0.000
       5 ->  8         0.69168

 Excited State  24:      Singlet-SGU   14.4695 eV   85.69 nm  f=0.4056  <S**2>=0.000
       4 ->  8        -0.18280
       5 -> 11         0.65888

 Excited state symmetry could not be determined.
 Excited State  25:      Singlet-?Sym   14.6435 eV   84.67 nm  f=0.0000  <S**2>=0.000
       6 -> 18         0.49325
       7 -> 19        -0.49325

 Excited state symmetry could not be determined.
 Excited State  26:      Singlet-?Sym   14.6435 eV   84.67 nm  f=0.0000  <S**2>=0.000
       6 -> 19         0.49325
       7 -> 18         0.49325

 Excited state symmetry could not be determined.
 Excited State  27:      Singlet-?Sym   14.7120 eV   84.27 nm  f=0.0000  <S**2>=0.000
       6 -> 19        -0.49319
       7 -> 18         0.49319

 Excited state symmetry could not be determined.
 Excited State  28:      Singlet-?Sym   15.8898 eV   78.03 nm  f=0.2862  <S**2>=0.000
       4 ->  9         0.46211
       4 -> 10        -0.32176
       6 -> 17         0.11481
       6 -> 20         0.19768
       7 -> 16         0.11481
       7 -> 20        -0.28390

 Excited state symmetry could not be determined.
 Excited State  29:      Singlet-?Sym   15.8898 eV   78.03 nm  f=0.2862  <S**2>=0.000
       4 ->  9         0.32176
       4 -> 10         0.46211
       6 -> 16        -0.11481
       6 -> 20        -0.28390
       7 -> 17         0.11481
       7 -> 20        -0.19768

 Excited state symmetry could not be determined.
 Excited State  30:      Singlet-?Sym   15.9749 eV   77.61 nm  f=0.0017  <S**2>=0.000
       4 ->  8         0.36210
       5 -> 11         0.19272
       6 -> 18         0.38974
       7 -> 19         0.38974

 Excited state symmetry could not be determined.
 Excited State  31:      Singlet-?Sym   16.2239 eV   76.42 nm  f=0.5148  <S**2>=0.000
       4 ->  9        -0.14034
       4 -> 10         0.26225
       6 -> 20         0.53681
       6 -> 22         0.12802
       7 -> 20        -0.28727

 Excited state symmetry could not be determined.
 Excited State  32:      Singlet-?Sym   16.2239 eV   76.42 nm  f=0.5148  <S**2>=0.000
       4 ->  9         0.26225
       4 -> 10         0.14034
       6 -> 20         0.28727
       7 -> 20         0.53681
       7 -> 22         0.12802

 Excited State  33:      Singlet-SGG   16.4898 eV   75.19 nm  f=0.0000  <S**2>=0.000
       4 -> 11         0.31668
       5 -> 12         0.58188
       6 -> 15         0.12319
       7 -> 14         0.12319

 Excited state symmetry could not be determined.
 Excited State  34:      Singlet-?Sym   16.5581 eV   74.88 nm  f=0.0000  <S**2>=0.000
       6 -> 21        -0.19496
       6 -> 23         0.12626
       7 -> 21         0.64101
       7 -> 24         0.12625

 Excited state symmetry could not be determined.
 Excited State  35:      Singlet-?Sym   16.5581 eV   74.88 nm  f=0.0000  <S**2>=0.000
       6 -> 21         0.64101
       6 -> 24        -0.12625
       7 -> 21         0.19496
       7 -> 23         0.12626

 Excited State  36:      Singlet-SGU   16.6462 eV   74.48 nm  f=0.0597  <S**2>=0.000
       4 ->  8         0.55988
       4 -> 12         0.18463
       6 -> 18        -0.24391
       7 -> 19        -0.24391

 Excited State  37:      Singlet-SGG   17.0082 eV   72.90 nm  f=0.0000  <S**2>=0.000
       4 -> 11         0.59643
       5 ->  8         0.11644
       5 -> 12        -0.34362

 Excited state symmetry could not be determined.
 Excited State  38:      Singlet-?Sym   17.3234 eV   71.57 nm  f=0.0000  <S**2>=0.000
       6 -> 23         0.40477
       6 -> 24         0.29356
       7 -> 23         0.29357
       7 -> 24        -0.40476

 Excited state symmetry could not be determined.
 Excited State  39:      Singlet-?Sym   17.3234 eV   71.57 nm  f=0.0000  <S**2>=0.000
       6 -> 23        -0.29357
       6 -> 24         0.40476
       7 -> 23         0.40477
       7 -> 24         0.29356

 Excited state symmetry could not be determined.
 Excited State  40:      Singlet-?Sym   17.5097 eV   70.81 nm  f=0.0011  <S**2>=0.000
       4 -> 10        -0.14730
       5 -> 15         0.40218
       6 -> 22         0.54240

 Excited state symmetry could not be determined.
 Excited State  41:      Singlet-?Sym   17.5097 eV   70.81 nm  f=0.0011  <S**2>=0.000
       4 ->  9        -0.14730
       5 -> 14         0.40218
       7 -> 22         0.54240

 Excited state symmetry could not be determined.
 Excited State  42:      Singlet-?Sym   17.6300 eV   70.33 nm  f=0.0000  <S**2>=0.000
       6 -> 23         0.47262
       7 -> 21        -0.18687
       7 -> 24         0.47264

 Excited state symmetry could not be determined.
 Excited State  43:      Singlet-?Sym   17.6300 eV   70.33 nm  f=0.0000  <S**2>=0.000
       6 -> 21         0.18687
       6 -> 24         0.47264
       7 -> 23        -0.47262

 Excited state symmetry could not be determined.
 Excited State  44:      Singlet-?Sym   17.7080 eV   70.02 nm  f=0.0000  <S**2>=0.000
       6 -> 26        -0.49911
       7 -> 25         0.49911

 Excited state symmetry could not be determined.
 Excited State  45:      Singlet-?Sym   17.7080 eV   70.02 nm  f=0.0000  <S**2>=0.000
       6 -> 25         0.49911
       7 -> 26         0.49911

 Excited state symmetry could not be determined.
 Excited State  46:      Singlet-?Sym   17.7255 eV   69.95 nm  f=0.2277  <S**2>=0.000
       4 -> 19         0.11703
       5 -> 14         0.51331
       5 -> 15         0.21934
       6 -> 22        -0.15638
       7 -> 22        -0.36596

 Excited state symmetry could not be determined.
 Excited State  47:      Singlet-?Sym   17.7255 eV   69.95 nm  f=0.2277  <S**2>=0.000
       4 -> 18         0.11703
       5 -> 14        -0.21934
       5 -> 15         0.51331
       6 -> 22        -0.36596
       7 -> 22         0.15638

 Excited State  48:      Singlet-SGU   17.7463 eV   69.86 nm  f=0.6018  <S**2>=0.000
       4 -> 12        -0.45845
       5 -> 11         0.13668
       5 -> 13         0.50682

 Excited state symmetry could not be determined.
 Excited State  49:      Singlet-?Sym   17.9990 eV   68.88 nm  f=0.0000  <S**2>=0.000
       6 -> 25         0.49954
       7 -> 26        -0.49954

 Excited state symmetry could not be determined.
 Excited State  50:      Singlet-?Sym   18.1874 eV   68.17 nm  f=0.0000  <S**2>=0.000
       4 -> 11        -0.13542
       6 -> 26         0.47622
       7 -> 25         0.47622

 Excited State  51:      Singlet-SGU   18.3326 eV   67.63 nm  f=0.0575  <S**2>=0.000
       4 -> 12         0.44255
       5 -> 13         0.45139
       6 -> 28        -0.18033
       7 -> 29        -0.18033

 Excited state symmetry could not be determined.
 Excited State  52:      Singlet-?Sym   18.7400 eV   66.16 nm  f=0.0000  <S**2>=0.000
       4 -> 15        -0.14746
       5 -> 18        -0.10657
       6 -> 27         0.63373
       7 -> 27         0.21698

 Excited state symmetry could not be determined.
 Excited State  53:      Singlet-?Sym   18.7400 eV   66.16 nm  f=0.0000  <S**2>=0.000
       4 -> 14        -0.14746
       5 -> 19        -0.10657
       6 -> 27        -0.21698
       7 -> 27         0.63373

 Excited state symmetry could not be determined.
 Excited State  54:      Singlet-?Sym   18.9441 eV   65.45 nm  f=0.0000  <S**2>=0.000
       3 ->  9        -0.11463
       3 -> 10         0.12542
       4 -> 14        -0.34228
       4 -> 15         0.37448
       5 -> 18         0.30776
       5 -> 19        -0.28130
       6 -> 27         0.13704
       7 -> 27        -0.12526

 Excited state symmetry could not be determined.
 Excited State  55:      Singlet-?Sym   18.9441 eV   65.45 nm  f=0.0000  <S**2>=0.000
       3 ->  9         0.12542
       3 -> 10         0.11463
       4 -> 14         0.37448
       4 -> 15         0.34228
       5 -> 18         0.28130
       5 -> 19         0.30776
       6 -> 27         0.12526
       7 -> 27         0.13704

 Excited state symmetry could not be determined.
 Excited State  56:      Singlet-?Sym   19.1659 eV   64.69 nm  f=0.0000  <S**2>=0.000
       5 -> 16         0.70382

 Excited state symmetry could not be determined.
 Excited State  57:      Singlet-?Sym   19.1659 eV   64.69 nm  f=0.0000  <S**2>=0.000
       5 -> 17         0.70382

 Excited state symmetry could not be determined.
 Excited State  58:      Singlet-?Sym   19.2049 eV   64.56 nm  f=0.0000  <S**2>=0.000
       6 -> 29         0.49359
       7 -> 28         0.49359

 Excited state symmetry could not be determined.
 Excited State  59:      Singlet-?Sym   19.2049 eV   64.56 nm  f=0.0000  <S**2>=0.000
       6 -> 28         0.49359
       7 -> 29        -0.49359

 Excited state symmetry could not be determined.
 Excited State  60:      Singlet-?Sym   19.4691 eV   63.68 nm  f=0.0000  <S**2>=0.000
       6 -> 29        -0.49649
       7 -> 28         0.49649

 Excited state symmetry could not be determined.
 Excited State  61:      Singlet-?Sym   19.5350 eV   63.47 nm  f=0.0197  <S**2>=0.000
       4 -> 12         0.20418
       5 -> 13         0.11637
       6 -> 28         0.45105
       7 -> 29         0.45105

 Excited State  62:      Singlet-SGG   19.8326 eV   62.52 nm  f=0.0000  <S**2>=0.000
       4 -> 13         0.68231
       5 -> 20        -0.10833

 Excited state symmetry could not be determined.
 Excited State  63:      Singlet-?Sym   20.2812 eV   61.13 nm  f=0.0000  <S**2>=0.000
       3 -> 10         0.67054
       4 -> 15        -0.15598

 Excited state symmetry could not be determined.
 Excited State  64:      Singlet-?Sym   20.2812 eV   61.13 nm  f=0.0000  <S**2>=0.000
       3 ->  9         0.67054
       4 -> 14        -0.15598

 Excited state symmetry could not be determined.
 Excited State  65:      Singlet-?Sym   20.8368 eV   59.50 nm  f=0.0000  <S**2>=0.000
       4 -> 14         0.19599
       4 -> 15        -0.38717
       5 -> 18         0.48795
       5 -> 19        -0.24700

 Excited state symmetry could not be determined.
 Excited State  66:      Singlet-?Sym   20.8368 eV   59.50 nm  f=0.0000  <S**2>=0.000
       4 -> 14        -0.38717
       4 -> 15        -0.19599
       5 -> 18         0.24700
       5 -> 19         0.48795

 Excited state symmetry could not be determined.
 Excited State  67:      Singlet-?Sym   21.0530 eV   58.89 nm  f=0.0000  <S**2>=0.000
       4 -> 16         0.68554
       5 -> 24         0.16172

 Excited state symmetry could not be determined.
 Excited State  68:      Singlet-?Sym   21.0530 eV   58.89 nm  f=0.0000  <S**2>=0.000
       4 -> 17         0.68554
       5 -> 23         0.16172

 Excited State  69:      Singlet-SGG   21.2559 eV   58.33 nm  f=0.0000  <S**2>=0.000
       3 ->  8         0.68915

 Excited State  70:      Singlet-SGU   21.8307 eV   56.79 nm  f=0.0755  <S**2>=0.000
       3 -> 11         0.62927
       5 -> 21        -0.26740

 Excited State  71:      Singlet-SGG   22.0708 eV   56.18 nm  f=0.0000  <S**2>=0.000
       5 -> 20         0.68637

 Excited State  72:      Singlet-SGU   22.1897 eV   55.87 nm  f=0.2300  <S**2>=0.000
       3 -> 11         0.28805
       4 -> 22         0.14129
       5 -> 21         0.62418

 Excited state symmetry could not be determined.
 Excited State  73:      Singlet-?Sym   22.3174 eV   55.56 nm  f=0.0057  <S**2>=0.000
       4 -> 18         0.41897
       4 -> 19         0.51433
       5 -> 14        -0.11263
       5 -> 25         0.12982
       5 -> 26         0.10575

 Excited state symmetry could not be determined.
 Excited State  74:      Singlet-?Sym   22.3174 eV   55.56 nm  f=0.0057  <S**2>=0.000
       4 -> 18         0.51433
       4 -> 19        -0.41897
       5 -> 15        -0.11263
       5 -> 25        -0.10575
       5 -> 26         0.12982

 Excited State  75:      Singlet-SGG   23.2179 eV   53.40 nm  f=0.0000  <S**2>=0.000
       3 -> 12         0.59442
       4 -> 21         0.11530
       5 -> 22         0.34513

 Excited State  76:      Singlet-SGG   23.2717 eV   53.28 nm  f=0.0000  <S**2>=0.000
       3 -> 12        -0.35338
       4 -> 21         0.23734
       5 -> 22         0.51428
       6 -> 33        -0.13556
       7 -> 32        -0.13556

 Excited state symmetry could not be determined.
 Excited State  77:      Singlet-?Sym   23.3817 eV   53.03 nm  f=0.0000  <S**2>=0.000
       4 -> 17        -0.16285
       5 -> 23         0.68780

 Excited state symmetry could not be determined.
 Excited State  78:      Singlet-?Sym   23.3817 eV   53.03 nm  f=0.0000  <S**2>=0.000
       4 -> 16        -0.16285
       5 -> 24         0.68780

 Excited state symmetry could not be determined.
 Excited State  79:      Singlet-?Sym   23.9596 eV   51.75 nm  f=0.1296  <S**2>=0.000
       4 -> 19        -0.15945
       5 -> 25         0.66785
       5 -> 26         0.13647

 Excited state symmetry could not be determined.
 Excited State  80:      Singlet-?Sym   23.9596 eV   51.75 nm  f=0.1296  <S**2>=0.000
       4 -> 18        -0.15945
       5 -> 25        -0.13647
       5 -> 26         0.66785

 Excited State  81:      Singlet-SGU   24.0789 eV   51.49 nm  f=0.0145  <S**2>=0.000
       4 -> 20         0.68410

 Excited State  82:      Singlet-SGG   24.6276 eV   50.34 nm  f=0.0000  <S**2>=0.000
       4 -> 21         0.63977
       5 -> 22        -0.28215

 Excited State  83:      Singlet-SGU   24.6917 eV   50.21 nm  f=0.0104  <S**2>=0.000
       3 -> 13         0.64995
       4 -> 22         0.17599
       5 -> 27        -0.13873

 Excited state symmetry could not be determined.
 Excited State  84:      Singlet-?Sym   24.8934 eV   49.81 nm  f=0.0000  <S**2>=0.000
       5 -> 28         0.14650
       5 -> 29        -0.29647
       6 -> 30        -0.27376
       7 -> 30         0.55401

 Excited state symmetry could not be determined.
 Excited State  85:      Singlet-?Sym   24.8934 eV   49.81 nm  f=0.0000  <S**2>=0.000
       5 -> 28        -0.29647
       5 -> 29        -0.14650
       6 -> 30         0.55401
       7 -> 30         0.27376

 Excited state symmetry could not be determined.
 Excited State  86:      Singlet-?Sym   24.9639 eV   49.67 nm  f=0.0000  <S**2>=0.000
       5 -> 28         0.61678
       6 -> 30         0.33209

 Excited state symmetry could not be determined.
 Excited State  87:      Singlet-?Sym   24.9639 eV   49.67 nm  f=0.0000  <S**2>=0.000
       5 -> 29         0.61678
       7 -> 30         0.33209

 Excited State  88:      Singlet-SGU   25.1047 eV   49.39 nm  f=0.1900  <S**2>=0.000
       4 -> 22         0.38926
       5 -> 27         0.57216

 Excited state symmetry could not be determined.
 Excited State  89:      Singlet-?Sym   25.1540 eV   49.29 nm  f=0.0000  <S**2>=0.000
       3 -> 17         0.18393
       4 -> 23         0.67877

 Excited state symmetry could not be determined.
 Excited State  90:      Singlet-?Sym   25.1540 eV   49.29 nm  f=0.0000  <S**2>=0.000
       3 -> 16         0.18393
       4 -> 24         0.67877

 Excited state symmetry could not be determined.
 Excited State  91:      Singlet-?Sym   25.1546 eV   49.29 nm  f=0.0001  <S**2>=0.000
       3 -> 14         0.53072
       3 -> 15        -0.44701

 Excited state symmetry could not be determined.
 Excited State  92:      Singlet-?Sym   25.1546 eV   49.29 nm  f=0.0001  <S**2>=0.000
       3 -> 14         0.44701
       3 -> 15         0.53072

 Excited State  93:      Singlet-SGU   25.6047 eV   48.42 nm  f=0.0057  <S**2>=0.000
       3 -> 13        -0.21730
       4 -> 22         0.52310
       5 -> 21        -0.13065
       5 -> 27        -0.36324

 Excited state symmetry could not be determined.
 Excited State  94:      Singlet-?Sym   25.8611 eV   47.94 nm  f=0.0000  <S**2>=0.000
       3 -> 19         0.11103
       4 -> 25         0.62405
       4 -> 26        -0.29791

 Excited state symmetry could not be determined.
 Excited State  95:      Singlet-?Sym   25.8611 eV   47.94 nm  f=0.0000  <S**2>=0.000
       3 -> 18         0.11103
       4 -> 25         0.29791
       4 -> 26         0.62405

 Excited state symmetry could not be determined.
 Excited State  96:      Singlet-?Sym   26.1986 eV   47.32 nm  f=0.0000  <S**2>=0.000
       3 -> 16         0.67109
       4 -> 24        -0.18694

 Excited state symmetry could not be determined.
 Excited State  97:      Singlet-?Sym   26.1986 eV   47.32 nm  f=0.0000  <S**2>=0.000
       3 -> 17         0.67109
       4 -> 23        -0.18694

 Excited state symmetry could not be determined.
 Excited State  98:      Singlet-?Sym   26.1996 eV   47.32 nm  f=0.0222  <S**2>=0.000
       7 -> 31         0.69289

 Excited state symmetry could not be determined.
 Excited State  99:      Singlet-?Sym   26.1996 eV   47.32 nm  f=0.0222  <S**2>=0.000
       6 -> 31         0.69289

 Excited State 100:      Singlet-SGG   26.8439 eV   46.19 nm  f=0.0000  <S**2>=0.000
       4 -> 27         0.70015

 Excited state symmetry could not be determined.
 Excited State 101:      Singlet-?Sym   26.8525 eV   46.17 nm  f=0.0000  <S**2>=0.000
       3 -> 16        -0.12270
       6 -> 33        -0.49166
       7 -> 32         0.49166

 Excited state symmetry could not be determined.
 Excited State 102:      Singlet-?Sym   26.8525 eV   46.17 nm  f=0.0000  <S**2>=0.000
       3 -> 17        -0.12270
       6 -> 32         0.49166
       7 -> 33         0.49166

 Excited state symmetry could not be determined.
 Excited State 103:      Singlet-?Sym   26.8799 eV   46.13 nm  f=0.0002  <S**2>=0.000
       4 -> 28         0.69716

 Excited state symmetry could not be determined.
 Excited State 104:      Singlet-?Sym   26.8799 eV   46.13 nm  f=0.0002  <S**2>=0.000

 The electronic state is 1-SGG.
 Alpha  occ. eigenvalues --  -10.31002 -10.30727  -0.84694  -0.65609  -0.58665
 Alpha  occ. eigenvalues --   -0.38128  -0.38128
 Alpha virt. eigenvalues --    0.09952   0.10170   0.10170   0.11510   0.18236
 Alpha virt. eigenvalues --    0.23649   0.24995   0.24995   0.31348   0.31348
 Alpha virt. eigenvalues --    0.34601   0.34601   0.39285   0.40271   0.43550

 Mulliken charges:
               1
     1  C    0.138165
     2  C    0.138165
     3  H   -0.138165
     4  H   -0.138165
 Sum of Mulliken charges =  -0.00000

 Dipole moment (field-independent basis, Debye):
    X=             -0.0000    Y=             -0.0000    Z=              0.0000  Tot=              0.0000
 Quadrupole moment (field-independent basis, Debye-Ang):
   XX=            -13.4651   YY=            -13.4651   ZZ=             -7.0423
   XY=             -0.0000   XZ=              0.0000   YZ=              0.0000

 Normal termination of Gaussian 16 at Mon Mar 21 15:17:27 2022.
