 Gaussian 16, Revision C.01,
 Gaussian 16:  EM64L-G16RevC.01  3-Jul-2019

 ----------------------------------------------------------------------
 #P TD(Nstates=10000) wB97XD/Gen SCF(maxcycles=100) Int(Grid=ultrafine)
 ----------------------------------------------------------------------

 ---------------------
 xGDB7_00001_tier4.com
 ---------------------
 Symbolic Z-matrix:
 Charge =  0 Multiplicity = 1

                         Standard orientation:
 ---------------------------------------------------------------------
 Center     Atomic      Atomic             Coordinates (Angstroms)
 Number     Number       Type             X           Y           Z
 ---------------------------------------------------------------------
      1          6           0        0.000000    0.000000    0.660866
      2          6           0        0.000000    0.000000   -0.660866
      3          1           0        0.000000    0.922586    1.229258
      4          1           0       -0.000000   -0.922586    1.229258
      5          1           0        0.000000    0.922586   -1.229258
      6          1           0       -0.000000   -0.922586   -1.229258
 ---------------------------------------------------------------------

 SCF Done:  E(RwB97XD) =  -78.5044638908     A.U. after   11 cycles

 Excitation energies and oscillator strengths:

 Excited State   1:      Singlet-B1U    7.9049 eV  156.84 nm  f=0.3786  <S**2>=0.000
       8 ->  9         0.70001
 This state for optimization and/or second-order correction.
 Total Energy, E(TD-HF/TD-DFT) =  -78.2139635055
 Copying the excited state density for this state as the 1-particle RhoCI density.

 Excited State   2:      Singlet-B3U    7.9118 eV  156.71 nm  f=0.0894  <S**2>=0.000
       8 -> 10         0.69985

 Excited State   3:      Singlet-B1G    8.2029 eV  151.15 nm  f=0.0000  <S**2>=0.000
       7 ->  9         0.70190

 Excited State   4:      Singlet-B2G    8.7811 eV  141.19 nm  f=0.0000  <S**2>=0.000
       8 -> 11         0.70103

 Excited State   5:      Singlet-B1G    9.4012 eV  131.88 nm  f=0.0000  <S**2>=0.000
       8 -> 12         0.69788

 Excited State   6:      Singlet-B2G    9.7634 eV  126.99 nm  f=0.0000  <S**2>=0.000
       6 ->  9         0.69946

 Excited State   7:      Singlet-B3G   10.0753 eV  123.06 nm  f=0.0000  <S**2>=0.000
       7 -> 10         0.69670

 Excited State   8:      Singlet-B3U   10.4407 eV  118.75 nm  f=0.1056  <S**2>=0.000
       8 -> 13         0.69642

 Excited State   9:      Singlet-B2U   10.8489 eV  114.28 nm  f=0.1527  <S**2>=0.000
       5 -> 10         0.10461
       7 -> 11         0.69343

 Excited State  10:      Singlet-AU    11.2433 eV  110.27 nm  f=0.0000  <S**2>=0.000
       5 ->  9        -0.37213
       8 -> 14         0.59538

 Excited State  11:      Singlet-B3U   11.4074 eV  108.69 nm  f=0.1358  <S**2>=0.000
       8 -> 15         0.69402

 Excited State  12:      Singlet-AU    11.4124 eV  108.64 nm  f=0.0000  <S**2>=0.000
       5 ->  9         0.59745
       8 -> 14         0.37238

 Excited State  13:      Singlet-B2U   11.7442 eV  105.57 nm  f=0.1196  <S**2>=0.000
       8 -> 17         0.69335

 Excited State  14:      Singlet-AG    11.7663 eV  105.37 nm  f=0.0000  <S**2>=0.000
       6 -> 10         0.24031
       7 -> 14        -0.11598
       8 -> 16         0.64284

 Excited State  15:      Singlet-B1U   11.8168 eV  104.92 nm  f=0.2357  <S**2>=0.000
       7 -> 12         0.69586

 Excited State  16:      Singlet-AG    12.2235 eV  101.43 nm  f=0.0000  <S**2>=0.000
       6 -> 10         0.65406
       7 -> 14         0.11859
       8 -> 16        -0.21504

 Excited State  17:      Singlet-B2G   12.3717 eV  100.22 nm  f=0.0000  <S**2>=0.000
       8 -> 18         0.69853

 Excited State  18:      Singlet-B1G   12.5071 eV   99.13 nm  f=0.0000  <S**2>=0.000
       8 -> 19         0.70138

 Excited State  19:      Singlet-B3G   12.6383 eV   98.10 nm  f=0.0000  <S**2>=0.000
       5 -> 11        -0.11763
       7 -> 13         0.68643

 Excited State  20:      Singlet-B1U   12.7497 eV   97.24 nm  f=0.2523  <S**2>=0.000
       6 -> 11         0.69680

 Excited State  21:      Singlet-B3G   13.3153 eV   93.11 nm  f=0.0000  <S**2>=0.000
       5 -> 11         0.22620
       7 -> 15         0.65687

 Excited State  22:      Singlet-B2U   13.4919 eV   91.90 nm  f=0.2810  <S**2>=0.000
       5 -> 10         0.66234
       6 -> 12         0.19860
       7 -> 11        -0.10094

 Excited State  23:      Singlet-B2U   13.5498 eV   91.50 nm  f=0.0445  <S**2>=0.000
       5 -> 10        -0.19678
       6 -> 12         0.65361
       7 -> 18         0.10966

 Excited State  24:      Singlet-AU    13.6854 eV   90.60 nm  f=0.0000  <S**2>=0.000
       7 -> 16         0.69926

 Excited State  25:      Singlet-AG    13.7997 eV   89.85 nm  f=0.0000  <S**2>=0.000
       6 -> 15         0.12116
       7 -> 14         0.66795
       8 -> 16         0.13966

 Excited State  26:      Singlet-B2G   13.8606 eV   89.45 nm  f=0.0000  <S**2>=0.000
       7 -> 17         0.63598
       8 -> 20        -0.29335

 Excited State  27:      Singlet-B2G   14.0958 eV   87.96 nm  f=0.0000  <S**2>=0.000
       7 -> 17         0.28896
       8 -> 20         0.63442

 Excited State  28:      Singlet-B1U   14.3275 eV   86.54 nm  f=0.0518  <S**2>=0.000
       7 -> 19        -0.13354
       8 -> 21         0.67330

 Excited State  29:      Singlet-B3G   14.3919 eV   86.15 nm  f=0.0000  <S**2>=0.000
       5 -> 11         0.43440
       7 -> 15        -0.12799
       8 -> 22         0.52216

 Excited State  30:      Singlet-AG    14.4047 eV   86.07 nm  f=0.0000  <S**2>=0.000
       6 -> 13         0.68361

 Excited State  31:      Singlet-B3G   14.5170 eV   85.41 nm  f=0.0000  <S**2>=0.000
       5 -> 11         0.47734
       7 -> 15        -0.20816
       8 -> 22        -0.46702

 Excited State  32:      Singlet-B2U   14.8474 eV   83.51 nm  f=0.6008  <S**2>=0.000
       6 -> 12        -0.11213
       6 -> 19         0.13401
       7 -> 18         0.66766

 Excited State  33:      Singlet-AG    15.0889 eV   82.17 nm  f=0.0000  <S**2>=0.000
       5 -> 12         0.50777
       6 -> 15        -0.45931
       7 -> 14         0.10484

 Excited State  34:      Singlet-B1U   15.1309 eV   81.94 nm  f=0.3811  <S**2>=0.000
       5 -> 14        -0.11569
       7 -> 19         0.67331
       8 -> 21         0.11662

 Excited State  35:      Singlet-B3U   15.1571 eV   81.80 nm  f=0.1067  <S**2>=0.000
       4 ->  9         0.62074
       5 -> 17        -0.14393
       6 -> 16         0.16863
       7 -> 22        -0.11637
       8 -> 23        -0.19362

 Excited State  36:      Singlet-B3G   15.1897 eV   81.62 nm  f=0.0000  <S**2>=0.000
       4 -> 12        -0.12553
       6 -> 14         0.68417

 Excited State  37:      Singlet-B3U   15.4854 eV   80.07 nm  f=0.0908  <S**2>=0.000
       4 ->  9         0.12204
       6 -> 16         0.21264
       8 -> 23         0.65387

 Excited State  38:      Singlet-B1G   15.5486 eV   79.74 nm  f=0.0000  <S**2>=0.000
       5 -> 16        -0.23846
       6 -> 17         0.51697
       7 -> 21        -0.41172

 Excited State  39:      Singlet-B3U   15.7336 eV   78.80 nm  f=0.1716  <S**2>=0.000
       4 ->  9        -0.21736
       6 -> 16         0.63845
       8 -> 23        -0.16914

 Excited State  40:      Singlet-B1G   15.9674 eV   77.65 nm  f=0.0000  <S**2>=0.000
       5 -> 16         0.19651
       6 -> 17         0.47525
       7 -> 21         0.47973

 Excited State  41:      Singlet-B2U   15.9701 eV   77.64 nm  f=0.0223  <S**2>=0.000
       5 -> 13         0.41096
       5 -> 15        -0.19959
       6 -> 19        -0.20030
       7 -> 18         0.12925
       7 -> 20         0.46686

 Excited State  42:      Singlet-B2U   16.0436 eV   77.28 nm  f=0.0730  <S**2>=0.000
       5 -> 13         0.47573
       5 -> 15         0.28374
       6 -> 19        -0.16296
       7 -> 20        -0.39116

 Excited State  43:      Singlet-AG    16.0792 eV   77.11 nm  f=0.0000  <S**2>=0.000
       5 -> 12         0.42257
       6 -> 13        -0.10855
       6 -> 15         0.47689
       8 -> 16        -0.10436
       8 -> 27        -0.21774

 Excited State  44:      Singlet-B1G   16.2338 eV   76.37 nm  f=0.0000  <S**2>=0.000
       8 -> 24         0.69785

 Excited State  45:      Singlet-AG    16.3333 eV   75.91 nm  f=0.0000  <S**2>=0.000
       5 -> 12         0.15933
       6 -> 15         0.13639
       8 -> 27         0.66215

 Excited State  46:      Singlet-B1U   16.4231 eV   75.49 nm  f=0.0126  <S**2>=0.000
       4 -> 10         0.26727
       5 -> 14         0.11248
       6 -> 18         0.63084

 Excited State  47:      Singlet-B2G   16.4468 eV   75.39 nm  f=0.0000  <S**2>=0.000
       8 -> 25         0.69466

 Excited State  48:      Singlet-B3U   16.5013 eV   75.14 nm  f=0.3779  <S**2>=0.000
       4 ->  9         0.13499
       5 -> 17         0.23090
       6 -> 16         0.10264
       7 -> 22         0.63283

 Excited State  49:      Singlet-B1U   16.7061 eV   74.22 nm  f=0.0015  <S**2>=0.000
       4 -> 10         0.57235
       5 -> 14         0.27288
       6 -> 18        -0.28180

 Excited State  50:      Singlet-B2U   16.9303 eV   73.23 nm  f=0.0700  <S**2>=0.000
       5 -> 15         0.49312
       6 -> 19         0.37011
       7 -> 20         0.30588

 Excited State  51:      Singlet-B1U   17.0753 eV   72.61 nm  f=0.0169  <S**2>=0.000
       4 -> 10        -0.27225
       5 -> 14         0.59874
       6 -> 20         0.15816
       7 -> 24         0.10416

 Excited State  52:      Singlet-B2U   17.0763 eV   72.61 nm  f=0.1689  <S**2>=0.000
       5 -> 13         0.26170
       5 -> 15        -0.35404
       6 -> 19         0.51124
       7 -> 20        -0.15145

 Excited State  53:      Singlet-AU    17.1673 eV   72.22 nm  f=0.0000  <S**2>=0.000
       8 -> 26         0.70281

 Excited State  54:      Singlet-B1G   17.3513 eV   71.46 nm  f=0.0000  <S**2>=0.000
       5 -> 16         0.63134
       7 -> 21        -0.30368

 Excited State  55:      Singlet-AG    17.4255 eV   71.15 nm  f=0.0000  <S**2>=0.000
       4 -> 11         0.68319

 Excited State  56:      Singlet-B3U   17.4616 eV   71.00 nm  f=0.0532  <S**2>=0.000
       5 -> 17         0.60808
       7 -> 22        -0.27278
       8 -> 28        -0.19986

 Excited State  57:      Singlet-B3G   17.6776 eV   70.14 nm  f=0.0000  <S**2>=0.000
       4 -> 12         0.22398
       5 -> 18        -0.11713
       7 -> 23         0.64838

 Excited State  58:      Singlet-B2G   17.6991 eV   70.05 nm  f=0.0000  <S**2>=0.000
       4 -> 16         0.16870
       6 -> 21         0.66974

 Excited State  59:      Singlet-B3G   17.9346 eV   69.13 nm  f=0.0000  <S**2>=0.000
       4 -> 12         0.19624
       5 -> 18         0.65972

 Excited State  60:      Singlet-AG    18.0116 eV   68.84 nm  f=0.0000  <S**2>=0.000
       5 -> 19         0.66652
       7 -> 26         0.17968

 Excited State  61:      Singlet-B3G   18.0721 eV   68.61 nm  f=0.0000  <S**2>=0.000
       4 -> 12         0.61912
       5 -> 18        -0.15900
       6 -> 14         0.11450
       7 -> 23        -0.25568

 Excited State  62:      Singlet-B1U   18.0737 eV   68.60 nm  f=0.3273  <S**2>=0.000
       4 -> 15        -0.19884
       5 -> 14        -0.13961
       6 -> 20         0.59543
       7 -> 24         0.23097

 Excited State  63:      Singlet-AU    18.3075 eV   67.72 nm  f=0.0000  <S**2>=0.000
       4 -> 17         0.15196
       5 -> 21        -0.14753
       6 -> 22         0.63756
       7 -> 27         0.14097
       8 -> 30         0.14736

 Excited State  64:      Singlet-B3U   18.3720 eV   67.49 nm  f=0.2721  <S**2>=0.000
       4 ->  9         0.11732
       5 -> 17         0.19802
       8 -> 28         0.65902

 Excited State  65:      Singlet-B1G   18.4279 eV   67.28 nm  f=0.0000  <S**2>=0.000
       8 -> 29         0.69999

 Excited State  66:      Singlet-AU    18.5653 eV   66.78 nm  f=0.0000  <S**2>=0.000
       5 -> 21        -0.14500
       6 -> 22        -0.12191
       7 -> 27         0.65537
       8 -> 30        -0.15412

 Excited State  67:      Singlet-AU    18.6800 eV   66.37 nm  f=0.0000  <S**2>=0.000
       6 -> 22        -0.18781
       7 -> 27         0.11408
       8 -> 30         0.66407

 Excited State  68:      Singlet-B2G   18.7511 eV   66.12 nm  f=0.0000  <S**2>=0.000
       8 -> 33         0.69195

 Excited State  69:      Singlet-B2U   18.7782 eV   66.03 nm  f=0.0405  <S**2>=0.000
       5 -> 23         0.11327
       7 -> 25         0.62177
       8 -> 32        -0.28564

 Excited State  70:      Singlet-B1U   18.8143 eV   65.90 nm  f=0.3293  <S**2>=0.000
       4 -> 13        -0.22368
       4 -> 15        -0.11109
       6 -> 20        -0.23634
       7 -> 24         0.59548
       7 -> 29         0.10490

 Excited State  71:      Singlet-B3U   18.9085 eV   65.57 nm  f=0.0722  <S**2>=0.000
       8 -> 31         0.69690

 Excited State  72:      Singlet-B2U   18.9712 eV   65.35 nm  f=0.1428  <S**2>=0.000
       7 -> 25         0.29186
       8 -> 32         0.62160

 Excited State  73:      Singlet-B1U   19.0021 eV   65.25 nm  f=0.0160  <S**2>=0.000
       4 -> 13         0.63888
       6 -> 20        -0.12866
       7 -> 24         0.19888

 Excited State  74:      Singlet-AG    19.2938 eV   64.26 nm  f=0.0000  <S**2>=0.000
       5 -> 19        -0.18013
       7 -> 26         0.67057

 Excited State  75:      Singlet-B3G   19.5188 eV   63.52 nm  f=0.0000  <S**2>=0.000
       5 -> 20         0.67330
       7 -> 28         0.16111

 Excited State  76:      Singlet-AU    19.5926 eV   63.28 nm  f=0.0000  <S**2>=0.000
       5 -> 21         0.66221
       6 -> 22         0.12841
       7 -> 27         0.16922

 Excited State  77:      Singlet-B2G   19.6823 eV   62.99 nm  f=0.0000  <S**2>=0.000
       3 ->  9         0.62977
       4 -> 16        -0.12337
       5 -> 22         0.12009
       6 -> 21         0.11311
       8 -> 35         0.20150

 Excited State  78:      Singlet-B1U   19.7216 eV   62.87 nm  f=0.0028  <S**2>=0.000
       4 -> 15        -0.22703
       8 -> 34         0.65035

 Excited State  79:      Singlet-AG    19.7335 eV   62.83 nm  f=0.0000  <S**2>=0.000
       4 -> 18        -0.10067
       6 -> 23         0.67680

 Excited State  80:      Singlet-B2G   19.8226 eV   62.55 nm  f=0.0000  <S**2>=0.000
       3 ->  9        -0.16535
       4 -> 16        -0.10730
       5 -> 22         0.63732
       7 -> 32         0.20038

 Excited State  81:      Singlet-B1U   19.9172 eV   62.25 nm  f=0.0478  <S**2>=0.000
       4 -> 15         0.59772
       6 -> 20         0.12757
       6 -> 25         0.11854
       7 -> 24         0.16702
       8 -> 34         0.25153

 Excited State  82:      Singlet-B2U   19.9227 eV   62.23 nm  f=0.0103  <S**2>=0.000
       4 -> 14         0.68278

 Excited State  83:      Singlet-B3G   20.1337 eV   61.58 nm  f=0.0000  <S**2>=0.000
       4 -> 19         0.15257
       5 -> 20        -0.15399
       7 -> 28         0.65350

 Excited State  84:      Singlet-B2G   20.2572 eV   61.21 nm  f=0.0000  <S**2>=0.000
       4 -> 16         0.64039
       5 -> 22         0.15309
       6 -> 21        -0.14201
       8 -> 35         0.18899

 Excited State  85:      Singlet-AU    20.3696 eV   60.87 nm  f=0.0000  <S**2>=0.000
       4 -> 17         0.67854
       6 -> 22        -0.15147

 Excited State  86:      Singlet-B2U   20.4357 eV   60.67 nm  f=0.0149  <S**2>=0.000
       5 -> 23         0.11434
       6 -> 24         0.63023
       7 -> 33         0.25986

 Excited State  87:      Singlet-B3U   20.4638 eV   60.59 nm  f=0.1849  <S**2>=0.000
       4 -> 21        -0.15502
       6 -> 27         0.68037

 Excited State  88:      Singlet-B1U   20.7320 eV   59.80 nm  f=0.1041  <S**2>=0.000
       4 -> 15        -0.13964
       6 -> 25         0.67859

 Excited State  89:      Singlet-B3G   20.8850 eV   59.37 nm  f=0.0000  <S**2>=0.000
       4 -> 19         0.39040
       6 -> 26         0.52529
       7 -> 28        -0.13106
       7 -> 31        -0.16548

 Excited State  90:      Singlet-AG    20.9066 eV   59.30 nm  f=0.0000  <S**2>=0.000
       4 -> 18         0.63247
       5 -> 24         0.10015
       6 -> 28        -0.19020
       7 -> 30         0.18716

 Excited State  91:      Singlet-B2G   20.9458 eV   59.19 nm  f=0.0000  <S**2>=0.000
       3 ->  9        -0.18707
       4 -> 16        -0.16648
       7 -> 32        -0.35305
       8 -> 35         0.53804

 Excited State  92:      Singlet-B1U   21.0032 eV   59.03 nm  f=0.0852  <S**2>=0.000
       5 -> 26         0.13050
       6 -> 20         0.11208
       7 -> 29         0.66717

 Excited State  93:      Singlet-B3G   21.0341 eV   58.94 nm  f=0.0000  <S**2>=0.000
       5 -> 25         0.18189
       6 -> 26         0.19788
       7 -> 31         0.63752

 Excited State  94:      Singlet-B2U   21.1471 eV   58.63 nm  f=0.1373  <S**2>=0.000
       5 -> 23         0.66656
       6 -> 24        -0.10048
       7 -> 25        -0.12209

 Excited State  95:      Singlet-B2G   21.2894 eV   58.24 nm  f=0.0000  <S**2>=0.000
       3 ->  9        -0.15036
       5 -> 22        -0.20319
       7 -> 32         0.56712
       8 -> 35         0.32237

 Excited State  96:      Singlet-AG    21.2946 eV   58.22 nm  f=0.0000  <S**2>=0.000
       3 -> 10        -0.42753
       4 -> 18        -0.13459
       4 -> 20         0.10150
       6 -> 28         0.10017
       7 -> 30         0.49895

 Excited State  97:      Singlet-B3G   21.5508 eV   57.53 nm  f=0.0000  <S**2>=0.000
       4 -> 19         0.54640
       6 -> 26        -0.40411

 Excited State  98:      Singlet-B1G   21.5714 eV   57.48 nm  f=0.0000  <S**2>=0.000
       5 -> 27         0.51066
       7 -> 34         0.48140

 Excited State  99:      Singlet-B2U   21.6778 eV   57.19 nm  f=0.2874  <S**2>=0.000
       3 -> 12        -0.12661
       6 -> 24        -0.23504
       6 -> 29        -0.25703
       7 -> 33         0.55485
       7 -> 35         0.15141

 Excited State 100:      Singlet-AG    21.6880 eV   57.17 nm  f=0.0000  <S**2>=0.000
       3 -> 10         0.53397
       4 -> 20         0.15361
       6 -> 23        -0.12534
       6 -> 28         0.15547
       6 -> 31         0.10237
       7 -> 30         0.35107

 Excited State 101:      Singlet-AG    22.0426 eV   56.25 nm  f=0.0000  <S**2>=0.000
       4 -> 18         0.11071
       4 -> 20         0.23754
       5 -> 24         0.43944
       6 -> 28         0.41920
       7 -> 30        -0.21397

 Excited State 102:      Singlet-AG    22.1198 eV   56.05 nm  f=0.0000  <S**2>=0.000
       4 -> 18         0.19723
       4 -> 20        -0.10235
       5 -> 24        -0.40020
       6 -> 28         0.46260
       6 -> 31        -0.23936

 Excited State 103:      Singlet-B1G   22.2064 eV   55.83 nm  f=0.0000  <S**2>=0.000
       4 -> 22         0.26980
       5 -> 27         0.43970
       6 -> 32         0.20651
       7 -> 34        -0.43398

 Excited State 104:      Singlet-B3G   22.3151 eV   55.56 nm  f=0.0000  <S**2>=0.000
       5 -> 25         0.64750
       6 -> 30        -0.11241
       7 -> 31        -0.20571

 Excited State 105:      Singlet-B1U   22.3381 eV   55.50 nm  f=0.0051  <S**2>=0.000
       3 -> 11         0.66073
       5 -> 26        -0.14271
       6 -> 33         0.14691

 Excited State 106:      Singlet-B2U   22.6411 eV   54.76 nm  f=0.0164  <S**2>=0.000
       3 -> 12        -0.17340
       5 -> 28        -0.22505
       6 -> 29         0.47728
       7 -> 35         0.41394

 Excited State 107:      Singlet-B3U   22.6525 eV   54.73 nm  f=0.0006  <S**2>=0.000
       4 -> 21         0.67416
       6 -> 27         0.14693

 Excited State 108:      Singlet-B1G   22.6713 eV   54.69 nm  f=0.0000  <S**2>=0.000
       4 -> 22         0.42136
       5 -> 27        -0.20499
       6 -> 32         0.44709
       7 -> 34         0.27086

 Excited State 109:      Singlet-B3G   22.6818 eV   54.66 nm  f=0.0000  <S**2>=0.000
       6 -> 30         0.51424
       8 -> 37        -0.46014

 Excited State 110:      Singlet-B1U   22.7102 eV   54.59 nm  f=0.0442  <S**2>=0.000
       3 -> 11         0.15868
       5 -> 26         0.67086
       7 -> 29        -0.12181

 Excited State 111:      Singlet-AG    22.7434 eV   54.51 nm  f=0.0000  <S**2>=0.000
       4 -> 20         0.60533
       5 -> 24        -0.21894
       6 -> 28        -0.15553
       6 -> 31        -0.15144

 Excited State 112:      Singlet-B3G   22.7883 eV   54.41 nm  f=0.0000  <S**2>=0.000
       5 -> 25         0.16576
       6 -> 30         0.42671
       8 -> 37         0.50585

 Excited State 113:      Singlet-B2G   22.8973 eV   54.15 nm  f=0.0000  <S**2>=0.000
       8 -> 35         0.13333
       8 -> 36         0.68520

 Excited State 114:      Singlet-B2U   22.9075 eV   54.12 nm  f=0.2569  <S**2>=0.000
       3 -> 12         0.18241
       5 -> 23        -0.13298
       5 -> 28        -0.20040
       5 -> 31        -0.11888
       6 -> 29        -0.36573
       7 -> 33        -0.23549
       7 -> 35         0.43472

 Excited State 115:      Singlet-AG    23.1609 eV   53.53 nm  f=0.0000  <S**2>=0.000
       5 -> 24        -0.22839
       6 -> 31         0.61474
       8 -> 40         0.13953

 Excited State 116:      Singlet-B1U   23.2113 eV   53.42 nm  f=0.1461  <S**2>=0.000
       3 -> 11        -0.12697
       4 -> 23        -0.10482
       6 -> 33         0.65754

 Excited State 117:      Singlet-B2U   23.2926 eV   53.23 nm  f=0.0296  <S**2>=0.000
       3 -> 12         0.56558
       5 -> 28        -0.28242
       5 -> 31         0.12489
       6 -> 29         0.13397
       7 -> 33         0.18422

 Excited State 118:      Singlet-B1G   23.2962 eV   53.22 nm  f=0.0000  <S**2>=0.000
       4 -> 22        -0.48120
       6 -> 32         0.50352

 Excited State 119:      Singlet-B2U   23.6695 eV   52.38 nm  f=0.0054  <S**2>=0.000
       3 -> 12         0.28959
       5 -> 28         0.54775
       7 -> 35         0.25933
       7 -> 36        -0.16149

 Excited State 120:      Singlet-AU    23.7151 eV   52.28 nm  f=0.0000  <S**2>=0.000
       8 -> 38         0.70476

 Excited State 121:      Singlet-B2G   23.7250 eV   52.26 nm  f=0.0000  <S**2>=0.000
       4 -> 27         0.20634
       6 -> 34         0.67102

 Excited State 122:      Singlet-AG    23.9365 eV   51.80 nm  f=0.0000  <S**2>=0.000
       3 -> 13         0.67206
       3 -> 15         0.15511

 Excited State 123:      Singlet-AG    24.1293 eV   51.38 nm  f=0.0000  <S**2>=0.000
       3 -> 13         0.10273
       5 -> 29         0.67867

 Excited State 124:      Singlet-B1U   24.2349 eV   51.16 nm  f=0.0091  <S**2>=0.000
       4 -> 23         0.52142
       5 -> 30         0.46380

 Excited State 125:      Singlet-B3U   24.4322 eV   50.75 nm  f=0.1035  <S**2>=0.000
       5 -> 32         0.64737
       7 -> 37        -0.18196
       8 -> 39        -0.18363

 Excited State 126:      Singlet-B1U   24.4495 eV   50.71 nm  f=0.1135  <S**2>=0.000
       4 -> 23        -0.40053

 The electronic state is 1-AG.
 Alpha  occ. eigenvalues --  -10.29945 -10.29853  -0.85689  -0.66858  -0.56076
 Alpha  occ. eigenvalues --   -0.50948  -0.43812  -0.36129
 Alpha virt. eigenvalues --    0.07402   0.10192   0.12025   0.17014   0.20315
 Alpha virt. eigenvalues --    0.21922   0.23869   0.25202   0.25810   0.27018
 Alpha virt. eigenvalues --    0.28925   0.33418   0.33892   0.34162   0.38829

 Mulliken charges:
               1
     1  C    0.121604
     2  C    0.121604
     3  H   -0.060802
     4  H   -0.060802
     5  H   -0.060802
     6  H   -0.060802
 Sum of Mulliken charges =  -0.00000

 Dipole moment (field-independent basis, Debye):
    X=              0.0000    Y=             -0.0000    Z=              0.0000  Tot=              0.0000
 Quadrupole moment (field-independent basis, Debye-Ang):
   XX=            -15.3762   YY=            -12.3483   ZZ=            -12.2171
   XY=              0.0000   XZ=             -0.0000   YZ=             -0.0000

 Normal termination of Gaussian 16 at Mon Mar 21 15:54:32 2022.
