 Gaussian 16, Revision C.01,
 Gaussian 16:  EM64L-G16RevC.01  3-Jul-2019

 ----------------------------------------------------------------------
 #P TD(Nstates=10000) wB97XD/Gen SCF(maxcycles=100) Int(Grid=ultrafine)
 ----------------------------------------------------------------------

 ---------------------
 xGDB7_00001_tier4.com
 ---------------------
 Symbolic Z-matrix:
 Charge =  0 Multiplicity = 1

                         Standard orientation:
 ---------------------------------------------------------------------
 Center     Atomic      Atomic             Coordinates (Angstroms)
 Number     Number       Type             X           Y           Z
 ---------------------------------------------------------------------
      1          6           0        0.630149   -0.000001   -0.000003
      2          9           0       -0.748512    0.000002    0.000001
      3          1           0        0.985250    0.897475   -0.509314
      4          1           0        0.985222   -0.889832   -0.522562
      5          1           0        0.985245   -0.007652    1.031883
 ---------------------------------------------------------------------

 SCF Done:  E(RwB97XD) =  -139.604989744     A.U. after   12 cycles

 Excitation energies and oscillator strengths:

 Excited State   1:      Singlet-A      9.6441 eV  128.56 nm  f=0.0232  <S**2>=0.000
       8 -> 10        -0.12113
       9 -> 10         0.62847
       9 -> 11        -0.27410
 This state for optimization and/or second-order correction.
 Total Energy, E(TD-HF/TD-DFT) =  -139.250574834
 Copying the excited state density for this state as the 1-particle RhoCI density.

 Excited State   2:      Singlet-A      9.6441 eV  128.56 nm  f=0.0232  <S**2>=0.000
       8 -> 10         0.62846
       8 -> 11        -0.27412
       9 -> 10         0.12113

 Excited State   3:      Singlet-A     10.2647 eV  120.79 nm  f=0.0311  <S**2>=0.000
       9 -> 10         0.28401
       9 -> 11         0.63023

 Excited State   4:      Singlet-A     10.2647 eV  120.79 nm  f=0.0311  <S**2>=0.000
       8 -> 10         0.28404
       8 -> 11         0.63022

 Excited State   5:      Singlet-A     11.7439 eV  105.57 nm  f=0.0449  <S**2>=0.000
       8 -> 12         0.34091
       8 -> 13         0.35884
       9 -> 12         0.35897
       9 -> 13        -0.34094

 Excited State   6:      Singlet-A     11.7439 eV  105.57 nm  f=0.0449  <S**2>=0.000
       8 -> 12        -0.35887
       8 -> 13         0.34085
       9 -> 12         0.34100
       9 -> 13         0.35894

 Excited State   7:      Singlet-A     11.8142 eV  104.95 nm  f=0.0000  <S**2>=0.000
       8 -> 12        -0.11765
       8 -> 13         0.47741
       9 -> 12        -0.47723
       9 -> 13        -0.11762

 Excited State   8:      Singlet-A     11.9555 eV  103.70 nm  f=0.1257  <S**2>=0.000
       8 -> 12         0.47556
       8 -> 13         0.11721
       9 -> 12        -0.11719
       9 -> 13         0.47550

 Excited State   9:      Singlet-A     12.7002 eV   97.62 nm  f=0.0000  <S**2>=0.000
       8 -> 15         0.49080
       9 -> 16         0.49073

 Excited State  10:      Singlet-A     12.7722 eV   97.07 nm  f=0.0465  <S**2>=0.000
       7 -> 10        -0.16800
       7 -> 11         0.13994
       8 -> 16        -0.11332
       9 -> 14         0.62998
       9 -> 15        -0.11338

 Excited State  11:      Singlet-A     12.7722 eV   97.07 nm  f=0.0466  <S**2>=0.000
       6 -> 10        -0.16801
       6 -> 11         0.13994
       8 -> 14         0.62997
       8 -> 15         0.11331
       9 -> 16        -0.11343

 Excited State  12:      Singlet-A     13.0932 eV   94.69 nm  f=0.0103  <S**2>=0.000
       5 -> 11        -0.10173
       8 -> 16        -0.47914
       9 -> 15         0.47975

 Excited State  13:      Singlet-A     13.1445 eV   94.32 nm  f=0.1049  <S**2>=0.000
       8 -> 16         0.46000
       9 -> 14         0.19699
       9 -> 15         0.45936

 Excited State  14:      Singlet-A     13.1445 eV   94.32 nm  f=0.1049  <S**2>=0.000
       8 -> 14         0.19703
       8 -> 15        -0.45965
       9 -> 16         0.45970

 Excited State  15:      Singlet-A     13.5564 eV   91.46 nm  f=0.1270  <S**2>=0.000
       7 -> 10         0.64341
       7 -> 11        -0.14214
       9 -> 14         0.16531

 Excited State  16:      Singlet-A     13.5565 eV   91.46 nm  f=0.1270  <S**2>=0.000
       6 -> 10         0.64341
       6 -> 11        -0.14213
       8 -> 14         0.16530

 Excited State  17:      Singlet-A     13.7724 eV   90.02 nm  f=0.0087  <S**2>=0.000
       8 -> 17         0.47106
       9 -> 18        -0.47105

 Excited State  18:      Singlet-A     13.7724 eV   90.02 nm  f=0.0087  <S**2>=0.000
       8 -> 18         0.47037
       9 -> 17         0.47174

 Excited State  19:      Singlet-A     13.8072 eV   89.80 nm  f=0.0000  <S**2>=0.000
       8 -> 18         0.48579
       9 -> 17        -0.48441

 Excited State  20:      Singlet-A     13.9038 eV   89.17 nm  f=0.0098  <S**2>=0.000
       5 -> 10         0.67096
       5 -> 11        -0.15745

 Excited State  21:      Singlet-A     14.1046 eV   87.90 nm  f=0.0045  <S**2>=0.000
       7 -> 10         0.17479
       7 -> 11         0.62877
       7 -> 14        -0.10019
       9 -> 19         0.13849
       9 -> 20        -0.10028

 Excited State  22:      Singlet-A     14.1046 eV   87.90 nm  f=0.0045  <S**2>=0.000
       6 -> 10         0.17479
       6 -> 11         0.62877
       6 -> 14        -0.10019
       8 -> 19         0.13848
       8 -> 20        -0.10028

 Excited State  23:      Singlet-A     14.2211 eV   87.18 nm  f=0.0036  <S**2>=0.000
       5 -> 11        -0.37103
       8 -> 17         0.40397
       9 -> 18         0.40402

 Excited State  24:      Singlet-A     14.9529 eV   82.92 nm  f=0.5259  <S**2>=0.000
       5 -> 10         0.17771
       5 -> 11         0.54209
       5 -> 14         0.11316
       8 -> 16        -0.10938
       8 -> 17         0.23807
       9 -> 15         0.10938
       9 -> 18         0.23807

 Excited State  25:      Singlet-A     15.3546 eV   80.75 nm  f=0.0058  <S**2>=0.000
       5 -> 12        -0.12980
       6 -> 11        -0.10719
       6 -> 13        -0.19532
       7 -> 12        -0.19534
       8 -> 19         0.49117
       8 -> 20        -0.27630
       9 -> 19        -0.17108

 Excited State  26:      Singlet-A     15.3546 eV   80.75 nm  f=0.0058  <S**2>=0.000
       5 -> 13        -0.12990
       6 -> 12        -0.19527
       7 -> 11        -0.10721
       7 -> 13         0.19528
       8 -> 19         0.17108
       9 -> 19         0.49118
       9 -> 20        -0.27631

 Excited State  27:      Singlet-A     15.6040 eV   79.46 nm  f=0.0000  <S**2>=0.000
       6 -> 12         0.20970
       6 -> 13        -0.42845
       6 -> 15         0.10380
       7 -> 12         0.42948
       7 -> 13         0.20981
       7 -> 16         0.10379

 Excited State  28:      Singlet-A     15.6282 eV   79.33 nm  f=0.0733  <S**2>=0.000
       5 -> 12         0.10883
       6 -> 12         0.27437
       6 -> 13         0.32351
       7 -> 12         0.32279
       7 -> 13        -0.27474
       8 -> 19         0.22033
       8 -> 20        -0.14083

 Excited State  29:      Singlet-A     15.6282 eV   79.33 nm  f=0.0733  <S**2>=0.000
       5 -> 13         0.10881
       6 -> 12         0.32337
       6 -> 13        -0.27493
       7 -> 12        -0.27417
       7 -> 13        -0.32298
       9 -> 19         0.22028
       9 -> 20        -0.14081

 Excited State  30:      Singlet-A     15.7758 eV   78.59 nm  f=0.0196  <S**2>=0.000
       5 -> 12        -0.34959
       5 -> 13         0.57414
       6 -> 12        -0.10330
       7 -> 13         0.10348

 Excited State  31:      Singlet-A     15.7758 eV   78.59 nm  f=0.0196  <S**2>=0.000
       5 -> 12         0.57416
       5 -> 13         0.34959
       6 -> 13        -0.10332
       7 -> 12        -0.10343

 Excited State  32:      Singlet-A     16.0681 eV   77.16 nm  f=0.0089  <S**2>=0.000
       6 -> 12         0.41285
       6 -> 13         0.20187
       6 -> 16         0.11495
       7 -> 12        -0.20184
       7 -> 13         0.41279
       7 -> 15        -0.11496

 Excited State  33:      Singlet-A     16.3267 eV   75.94 nm  f=0.0547  <S**2>=0.000
       7 -> 14         0.31956
       9 -> 19         0.31593
       9 -> 20         0.50404

 Excited State  34:      Singlet-A     16.3267 eV   75.94 nm  f=0.0547  <S**2>=0.000
       6 -> 14         0.31954
       8 -> 19         0.31592
       8 -> 20         0.50405

 Excited State  35:      Singlet-A     16.5564 eV   74.89 nm  f=0.0000  <S**2>=0.000
       6 -> 15         0.46394
       7 -> 16         0.46393

 Excited State  36:      Singlet-A     16.7073 eV   74.21 nm  f=0.0047  <S**2>=0.000
       5 -> 14         0.34129
       6 -> 12         0.10093
       6 -> 16        -0.40645
       7 -> 13         0.10091
       7 -> 15         0.40667

 Excited State  37:      Singlet-A     16.8446 eV   73.60 nm  f=0.1338  <S**2>=0.000
       5 -> 15         0.58552
       6 -> 15         0.13596
       6 -> 16         0.21321
       7 -> 15         0.21314
       7 -> 16        -0.13594

 Excited State  38:      Singlet-A     16.8447 eV   73.60 nm  f=0.1338  <S**2>=0.000
       5 -> 16         0.58565
       6 -> 15         0.21308
       6 -> 16        -0.13588
       7 -> 15        -0.13586
       7 -> 16        -0.21303

 Excited State  39:      Singlet-A     17.0055 eV   72.91 nm  f=0.0066  <S**2>=0.000
       7 -> 14         0.57072
       9 -> 19        -0.16095
       9 -> 20        -0.32172

 Excited State  40:      Singlet-A     17.0056 eV   72.91 nm  f=0.0066  <S**2>=0.000
       6 -> 14         0.57072
       8 -> 19        -0.16094
       8 -> 20        -0.32171

 Excited State  41:      Singlet-A     17.0685 eV   72.64 nm  f=0.1839  <S**2>=0.000
       5 -> 16         0.34585
       6 -> 14         0.13982
       6 -> 15        -0.30363
       6 -> 16         0.22320
       6 -> 18        -0.10069
       7 -> 15         0.22310
       7 -> 16         0.30366
       7 -> 17        -0.10075

 Excited State  42:      Singlet-A     17.0686 eV   72.64 nm  f=0.1839  <S**2>=0.000
       5 -> 15         0.34603
       6 -> 15        -0.22309
       6 -> 16        -0.30364
       6 -> 17         0.10072
       7 -> 14        -0.13980
       7 -> 15        -0.30348
       7 -> 16         0.22314
       7 -> 18        -0.10072

 Excited State  43:      Singlet-A     17.1539 eV   72.28 nm  f=0.0001  <S**2>=0.000
       5 -> 14         0.57086
       6 -> 16         0.21774
       6 -> 17         0.10428
       7 -> 15        -0.21776
       7 -> 18         0.10432

 Excited State  44:      Singlet-A     17.2065 eV   72.06 nm  f=0.0133  <S**2>=0.000
       6 -> 17        -0.19007
       6 -> 18         0.12004
       7 -> 17         0.12011
       7 -> 18         0.19001
       8 -> 21         0.41726
       9 -> 22        -0.41724

 Excited State  45:      Singlet-A     17.2065 eV   72.06 nm  f=0.0133  <S**2>=0.000
       6 -> 17        -0.12008
       6 -> 18        -0.18999
       7 -> 17        -0.19012
       7 -> 18         0.12008
       8 -> 22         0.41714
       9 -> 21         0.41735

 Excited State  46:      Singlet-A     17.3328 eV   71.53 nm  f=0.3825  <S**2>=0.000
       6 -> 17        -0.20279
       7 -> 18        -0.20280
       8 -> 21         0.38765
       8 -> 22         0.20793
       9 -> 21        -0.20785
       9 -> 22         0.38773

 Excited State  47:      Singlet-A     17.3615 eV   71.41 nm  f=0.0000  <S**2>=0.000
       6 -> 18        -0.24605
       7 -> 17         0.24595
       8 -> 21        -0.19833
       8 -> 22         0.36989
       9 -> 21        -0.36969
       9 -> 22        -0.19825

 Excited State  48:      Singlet-A     17.6550 eV   70.23 nm  f=0.0038  <S**2>=0.000
       9 -> 23         0.66512

 Excited State  49:      Singlet-A     17.6550 eV   70.23 nm  f=0.0038  <S**2>=0.000
       8 -> 23         0.66512

 Excited State  50:      Singlet-A     17.8225 eV   69.57 nm  f=0.0167  <S**2>=0.000
       5 -> 17         0.58987
       5 -> 18        -0.15226
       6 -> 18        -0.18081
       7 -> 17        -0.18073

 Excited State  51:      Singlet-A     17.8225 eV   69.57 nm  f=0.0167  <S**2>=0.000
       5 -> 17         0.15237
       5 -> 18         0.58963
       6 -> 17        -0.18094
       7 -> 18         0.18109

 Excited State  52:      Singlet-A     17.8709 eV   69.38 nm  f=0.0000  <S**2>=0.000
       6 -> 17         0.12640
       6 -> 18        -0.40069
       7 -> 17         0.40163
       7 -> 18         0.12630
       8 -> 21         0.12094
       8 -> 22        -0.22555
       9 -> 21         0.22606
       9 -> 22         0.12123

 Excited State  53:      Singlet-A     17.9103 eV   69.23 nm  f=0.0350  <S**2>=0.000
       5 -> 16         0.10582
       5 -> 17         0.29580
       6 -> 17         0.16830
       6 -> 18         0.33185
       7 -> 17         0.33093
       7 -> 18        -0.16862
       8 -> 22         0.21932
       9 -> 21         0.21879

 Excited State  54:      Singlet-A     17.9103 eV   69.23 nm  f=0.0350  <S**2>=0.000
       5 -> 15        -0.10586
       5 -> 18         0.29634
       6 -> 17         0.33134
       6 -> 18        -0.16855
       7 -> 17        -0.16823
       7 -> 18        -0.33112
       8 -> 21         0.21906
       9 -> 22        -0.21892

 Excited State  55:      Singlet-A     18.0623 eV   68.64 nm  f=0.0000  <S**2>=0.000
       5 -> 14        -0.15058
       5 -> 19        -0.13069
       5 -> 20         0.13792
       6 -> 17         0.40043
       6 -> 18         0.12616
       7 -> 17        -0.12608
       7 -> 18         0.40044
       8 -> 21         0.15972
       9 -> 22         0.15975

 Excited State  56:      Singlet-A     18.5872 eV   66.70 nm  f=0.0001  <S**2>=0.000
       9 -> 24         0.67857

 Excited State  57:      Singlet-A     18.5872 eV   66.70 nm  f=0.0001  <S**2>=0.000
       8 -> 24         0.67856

 Excited State  58:      Singlet-A     18.6575 eV   66.45 nm  f=0.0000  <S**2>=0.000
       8 -> 25         0.48897
       9 -> 26         0.48890

 Excited State  59:      Singlet-A     18.7895 eV   65.99 nm  f=0.0520  <S**2>=0.000
       6 -> 19        -0.17708
       7 -> 19         0.10733
       8 -> 25        -0.43988
       9 -> 24         0.12924
       9 -> 26         0.43999

 Excited State  60:      Singlet-A     18.7895 eV   65.99 nm  f=0.0520  <S**2>=0.000
       6 -> 19        -0.10731
       7 -> 19        -0.17707
       8 -> 24        -0.12926
       8 -> 26         0.43974
       9 -> 25         0.44015

 Excited State  61:      Singlet-A     18.8745 eV   65.69 nm  f=0.0594  <S**2>=0.000
       4 -> 10         0.13006
       8 -> 26         0.46462
       9 -> 25        -0.46424

 Excited State  62:      Singlet-A     19.1700 eV   64.68 nm  f=0.0032  <S**2>=0.000
       7 -> 19         0.55305
       7 -> 20        -0.30486
       8 -> 26         0.12825
       9 -> 23         0.12811
       9 -> 25         0.12822

 Excited State  63:      Singlet-A     19.1700 eV   64.68 nm  f=0.0032  <S**2>=0.000
       6 -> 19         0.55305
       6 -> 20        -0.30486
       8 -> 23         0.12812
       8 -> 25        -0.12826
       9 -> 26         0.12823

 Excited State  64:      Singlet-A     19.5873 eV   63.30 nm  f=0.0053  <S**2>=0.000
       4 -> 10         0.64521
       4 -> 11        -0.12917
       5 -> 19         0.20969

 Excited State  65:      Singlet-A     19.8985 eV   62.31 nm  f=0.0150  <S**2>=0.000
       4 -> 10         0.10470
       4 -> 11         0.29348
       5 -> 19        -0.22114
       8 -> 27         0.35352
       8 -> 28        -0.19040
       9 -> 27         0.19052
       9 -> 28         0.35356

 Excited State  66:      Singlet-A     19.9766 eV   62.06 nm  f=0.0000  <S**2>=0.000
       8 -> 27        -0.23462
       8 -> 28        -0.43520
       9 -> 27         0.43540
       9 -> 28        -0.23439

 Excited State  67:      Singlet-A     20.0391 eV   61.87 nm  f=0.0548  <S**2>=0.000
       6 -> 19        -0.10449
       6 -> 20        -0.15680
       7 -> 20         0.12971
       8 -> 27         0.16190
       8 -> 28         0.42991
       9 -> 27         0.42980
       9 -> 28        -0.16193

 Excited State  68:      Singlet-A     20.0391 eV   61.87 nm  f=0.0548  <S**2>=0.000
       6 -> 20         0.12968
       7 -> 19         0.10452
       7 -> 20         0.15678
       8 -> 27        -0.42981
       8 -> 28         0.16205
       9 -> 27         0.16176
       9 -> 28         0.42991

 Excited State  69:      Singlet-A     20.2320 eV   61.28 nm  f=0.1386  <S**2>=0.000
       4 -> 11         0.53991
       4 -> 14        -0.11118
       5 -> 19         0.36847
       5 -> 23        -0.10302

 Excited State  70:      Singlet-A     20.2343 eV   61.27 nm  f=0.0193  <S**2>=0.000
       7 -> 19         0.25415
       7 -> 20         0.54438
       8 -> 27         0.11515
       8 -> 28        -0.14425
       9 -> 27        -0.14321
       9 -> 28        -0.11334
       9 -> 29         0.22672

 Excited State  71:      Singlet-A     20.2344 eV   61.27 nm  f=0.0193  <S**2>=0.000
       6 -> 19         0.25418
       6 -> 20         0.54442
       8 -> 27         0.14384
       8 -> 28         0.11424
       8 -> 29         0.22668
       9 -> 27         0.11429
       9 -> 28        -0.14361

 Excited State  72:      Singlet-A     20.4367 eV   60.67 nm  f=0.0586  <S**2>=0.000
       7 -> 19        -0.17510
       7 -> 20        -0.18060
       9 -> 29         0.64286

 Excited State  73:      Singlet-A     20.4368 eV   60.67 nm  f=0.0586  <S**2>=0.000
       6 -> 19        -0.17510
       6 -> 20        -0.18056
       8 -> 29         0.64288

 Excited State  74:      Singlet-A     20.5035 eV   60.47 nm  f=0.0199  <S**2>=0.000
       4 -> 10        -0.11687
       4 -> 11        -0.21004
       5 -> 19         0.34188
       5 -> 20         0.47542
       8 -> 27         0.13984
       9 -> 28         0.13984

 Excited State  75:      Singlet-A     20.9205 eV   59.26 nm  f=0.0488  <S**2>=0.000
       4 -> 10         0.12887
       5 -> 19        -0.24967
       5 -> 20         0.42658
       6 -> 26        -0.13785
       7 -> 25         0.13786
       8 -> 27        -0.17823
       8 -> 31         0.11913
       9 -> 28        -0.17824
       9 -> 32         0.11914

 Excited State  76:      Singlet-A     21.1232 eV   58.70 nm  f=0.0003  <S**2>=0.000
       6 -> 21        -0.47657
       7 -> 22         0.47861
       9 -> 30        -0.12214

 Excited State  77:      Singlet-A     21.1232 eV   58.70 nm  f=0.0003  <S**2>=0.000
       6 -> 22         0.47597
       7 -> 21         0.47920
       8 -> 30         0.12215

 Excited State  78:      Singlet-A     21.1294 eV   58.68 nm  f=0.0137  <S**2>=0.000
       5 -> 23         0.14548
       6 -> 21         0.36268
       6 -> 22         0.30946
       7 -> 21        -0.30521
       7 -> 22         0.35920

 Excited State  79:      Singlet-A     21.2039 eV   58.47 nm  f=0.0720  <S**2>=0.000
       7 -> 23        -0.43607
       9 -> 30         0.50900

 Excited State  80:      Singlet-A     21.2040 eV   58.47 nm  f=0.0720  <S**2>=0.000
       6 -> 23        -0.43607
       8 -> 30         0.50900

 Excited State  81:      Singlet-A     21.2644 eV   58.31 nm  f=0.0000  <S**2>=0.000
       6 -> 21        -0.32191
       6 -> 22         0.37815
       7 -> 21        -0.37789
       7 -> 22        -0.32185

 Excited State  82:      Singlet-A     21.3756 eV   58.00 nm  f=0.0452  <S**2>=0.000
       5 -> 21         0.67915

 Excited State  83:      Singlet-A     21.3756 eV   58.00 nm  f=0.0452  <S**2>=0.000
       5 -> 22         0.67914

 Excited State  84:      Singlet-A     21.5778 eV   57.46 nm  f=0.0081  <S**2>=0.000
       4 -> 12        -0.18503
       4 -> 13         0.62991
       9 -> 30         0.16537

 Excited State  85:      Singlet-A     21.5778 eV   57.46 nm  f=0.0081  <S**2>=0.000
       4 -> 12         0.62991
       4 -> 13         0.18502
       8 -> 30         0.16535

 Excited State  86:      Singlet-A     21.7978 eV   56.88 nm  f=0.0086  <S**2>=0.000
       4 -> 13        -0.12102
       7 -> 23         0.53111
       9 -> 30         0.41347

 Excited State  87:      Singlet-A     21.7979 eV   56.88 nm  f=0.0086  <S**2>=0.000
       4 -> 12        -0.12100
       6 -> 23         0.53112
       8 -> 30         0.41348

 Excited State  88:      Singlet-A     21.9667 eV   56.44 nm  f=0.0040  <S**2>=0.000
       4 -> 11         0.12237
       5 -> 23         0.66252

 Excited State  89:      Singlet-A     22.2816 eV   55.64 nm  f=0.0000  <S**2>=0.000
       6 -> 25         0.38512
       7 -> 26         0.38800
       8 -> 31         0.17871
       8 -> 32        -0.24041
       9 -> 31         0.24515
       9 -> 32         0.18036

 Excited State  90:      Singlet-A     22.2838 eV   55.64 nm  f=0.0108  <S**2>=0.000
       4 -> 16         0.11431
       6 -> 25        -0.26861
       7 -> 24        -0.11682
       7 -> 26         0.26404
       8 -> 31        -0.26643
       8 -> 32         0.27186
       9 -> 31         0.26913
       9 -> 32         0.26440

 Excited State  91:      Singlet-A     22.2838 eV   55.64 nm  f=0.0108  <S**2>=0.000
       4 -> 15         0.11432
       6 -> 24        -0.11684
       6 -> 26        -0.26613
       7 -> 25        -0.26652
       8 -> 31        -0.27003
       8 -> 32        -0.26604
       9 -> 31        -0.26478
       9 -> 32         0.27098

 Excited State  92:      Singlet-A     22.3333 eV   55.52 nm  f=0.0041  <S**2>=0.000
       4 -> 16        -0.24038
       5 -> 26         0.16509
       7 -> 24         0.57425
       8 -> 32         0.17344
       9 -> 31         0.17323

 Excited State  93:      Singlet-A     22.3334 eV   55.52 nm  f=0.0041  <S**2>=0.000
       4 -> 15        -0.24043
       5 -> 25         0.16517
       6 -> 24         0.57420
       8 -> 31        -0.17336
       9 -> 32         0.17332

 Excited State  94:      Singlet-A     22.5215 eV   55.05 nm  f=0.0000  <S**2>=0.000
       5 -> 24         0.21285

 The electronic state is 1-A.
 Alpha  occ. eigenvalues --  -24.80978 -10.37476  -1.28244  -0.79432  -0.58463
 Alpha  occ. eigenvalues --   -0.57840  -0.57840  -0.43818  -0.43818
 Alpha virt. eigenvalues --    0.09193   0.13834   0.17284   0.17284   0.21112
 Alpha virt. eigenvalues --    0.22544   0.22544   0.24747   0.24747   0.33339
 Alpha virt. eigenvalues --    0.34982   0.38181   0.38181   0.39263   0.42395

 Mulliken charges:
               1
     1  C    0.633318
     2  F   -0.500862
     3  H   -0.044139
     4  H   -0.044156
     5  H   -0.044161
 Sum of Mulliken charges =  -0.00000

 Dipole moment (field-independent basis, Debye):
    X=              1.8873    Y=             -0.0000    Z=              0.0000  Tot=              1.8873
 Quadrupole moment (field-independent basis, Debye-Ang):
   XX=            -12.6201   YY=            -11.8602   ZZ=            -11.8603
   XY=              0.0000   XZ=              0.0000   YZ=              0.0000

 Normal termination of Gaussian 16 at Mon Mar 21 16:00:59 2022.
