 Gaussian 16, Revision C.01,
 Gaussian 16:  EM64L-G16RevC.01  3-Jul-2019

 ----------------------------------------------------------------------
 #P TD(Nstates=10000) wB97XD/Gen SCF(maxcycles=100) Int(Grid=ultrafine)
 ----------------------------------------------------------------------

 ---------------------
 xGDB7_00001_tier4.com
 ---------------------
 Symbolic Z-matrix:
 Charge =  0 Multiplicity = 1

                         Standard orientation:
 ---------------------------------------------------------------------
 Center     Atomic      Atomic             Coordinates (Angstroms)
 Number     Number       Type             X           Y           Z
 ---------------------------------------------------------------------
      1          6           0        0.000000    1.163894   -0.193136
      2          8           0       -0.000000   -0.000000    0.585449
      3          6           0       -0.000000   -1.163894   -0.193136
      4          1           0        0.000000    2.015478    0.485827
      5          1           0       -0.890390    1.219204   -0.834404
      6          1           0        0.890390    1.219204   -0.834404
      7          1           0       -0.000000   -2.015478    0.485827
      8          1           0        0.890390   -1.219204   -0.834404
      9          1           0       -0.890390   -1.219204   -0.834404
 ---------------------------------------------------------------------

 SCF Done:  E(RwB97XD) =  -154.872097095     A.U. after   12 cycles

 Excitation energies and oscillator strengths:

 Excited State   1:      Singlet-B1     7.3586 eV  168.49 nm  f=0.0288  <S**2>=0.000
      13 -> 14         0.66926
      13 -> 16        -0.15233
      13 -> 18        -0.15127
 This state for optimization and/or second-order correction.
 Total Energy, E(TD-HF/TD-DFT) =  -154.601674626
 Copying the excited state density for this state as the 1-particle RhoCI density.

 Excited State   2:      Singlet-A2     8.4601 eV  146.55 nm  f=0.0000  <S**2>=0.000
      13 -> 15         0.69520

 Excited State   3:      Singlet-B1     8.4677 eV  146.42 nm  f=0.0362  <S**2>=0.000
      13 -> 14         0.19485
      13 -> 16         0.62709
      13 -> 18         0.23243

 Excited State   4:      Singlet-A1     9.0362 eV  137.21 nm  f=0.0459  <S**2>=0.000
      12 -> 14        -0.14876
      13 -> 17         0.68219

 Excited State   5:      Singlet-B1     9.0820 eV  136.52 nm  f=0.0293  <S**2>=0.000
      13 -> 16        -0.26669
      13 -> 18         0.63877

 Excited State   6:      Singlet-A1     9.1205 eV  135.94 nm  f=0.0340  <S**2>=0.000
      12 -> 14         0.64007
      12 -> 16        -0.19950
      13 -> 17         0.16234

 Excited State   7:      Singlet-A2     9.8342 eV  126.08 nm  f=0.0000  <S**2>=0.000
      13 -> 19         0.68742

 Excited State   8:      Singlet-B1    10.0105 eV  123.85 nm  f=0.0011  <S**2>=0.000
      13 -> 21         0.69047

 Excited State   9:      Singlet-B2    10.0173 eV  123.77 nm  f=0.0015  <S**2>=0.000
      11 -> 14         0.32565
      12 -> 15         0.61441

 Excited State  10:      Singlet-A1    10.0818 eV  122.98 nm  f=0.0466  <S**2>=0.000
      12 -> 14         0.19105
      12 -> 16         0.57607
      12 -> 18         0.16241
      13 -> 20         0.28952

 Excited State  11:      Singlet-A1    10.3282 eV  120.04 nm  f=0.0897  <S**2>=0.000
      12 -> 14        -0.10216
      12 -> 16        -0.25701
      13 -> 20         0.63152

 Excited State  12:      Singlet-B2    10.7050 eV  115.82 nm  f=0.0605  <S**2>=0.000
      11 -> 14        -0.17252
      12 -> 15         0.14579
      13 -> 22         0.64179
      13 -> 25        -0.11993

 Excited State  13:      Singlet-B1    10.7700 eV  115.12 nm  f=0.0643  <S**2>=0.000
      12 -> 17         0.69963

 Excited State  14:      Singlet-B2    10.8088 eV  114.71 nm  f=0.1295  <S**2>=0.000
      11 -> 14         0.55301
      11 -> 16        -0.13841
      11 -> 18        -0.17586
      12 -> 15        -0.27772
      13 -> 22         0.23459

 Excited State  15:      Singlet-A1    10.8219 eV  114.57 nm  f=0.0038  <S**2>=0.000
      11 -> 15         0.10974
      12 -> 16        -0.20085
      12 -> 18         0.65607

 Excited State  16:      Singlet-A2    10.9747 eV  112.97 nm  f=0.0000  <S**2>=0.000
      10 -> 14         0.62863
      10 -> 18        -0.20134
      13 -> 24        -0.17071

 Excited State  17:      Singlet-B1    11.2588 eV  110.12 nm  f=0.0018  <S**2>=0.000
      13 -> 23         0.68576

 Excited State  18:      Singlet-B2    11.3783 eV  108.97 nm  f=0.0274  <S**2>=0.000
      11 -> 14        -0.13878
      11 -> 16        -0.32461
      12 -> 19         0.58123

 Excited State  19:      Singlet-A2    11.4259 eV  108.51 nm  f=0.0000  <S**2>=0.000
      10 -> 14         0.22159
      13 -> 24         0.63254
      13 -> 27        -0.13325

 Excited State  20:      Singlet-A1    11.6587 eV  106.35 nm  f=0.0206  <S**2>=0.000
       8 -> 14        -0.16834
      11 -> 15         0.63757
      12 -> 14        -0.11391
      12 -> 18        -0.10651
      12 -> 21         0.13991

 Excited State  21:      Singlet-B2    11.6812 eV  106.14 nm  f=0.0061  <S**2>=0.000
      11 -> 16         0.10686
      12 -> 19         0.12832
      13 -> 22         0.12146
      13 -> 25         0.66263

 Excited State  22:      Singlet-B1    11.7548 eV  105.48 nm  f=0.0173  <S**2>=0.000
      12 -> 20         0.69375

 Excited State  23:      Singlet-A1    11.8927 eV  104.25 nm  f=0.0875  <S**2>=0.000
      11 -> 15        -0.11560
      12 -> 21         0.67760

 Excited State  24:      Singlet-B2    11.8975 eV  104.21 nm  f=0.2543  <S**2>=0.000
      11 -> 14         0.14577
      11 -> 16         0.38282
      11 -> 18         0.40011
      12 -> 15        -0.10758
      12 -> 19         0.32387
      13 -> 25        -0.16100

 Excited State  25:      Singlet-B1    12.0286 eV  103.07 nm  f=0.1437  <S**2>=0.000
       9 -> 14        -0.19911
      10 -> 15         0.65628

 Excited State  26:      Singlet-A2    12.1004 eV  102.46 nm  f=0.0000  <S**2>=0.000
      10 -> 16         0.14542
      11 -> 17         0.47663
      12 -> 22        -0.44855
      13 -> 27        -0.11683

 Excited State  27:      Singlet-A2    12.2363 eV  101.32 nm  f=0.0000  <S**2>=0.000
      10 -> 16        -0.12803
      11 -> 17         0.15677
      13 -> 24         0.18427
      13 -> 27         0.58099
      13 -> 28         0.19504

 Excited State  28:      Singlet-A2    12.2608 eV  101.12 nm  f=0.0000  <S**2>=0.000
      10 -> 14         0.10144
      10 -> 16         0.54504
      10 -> 18         0.28450
      11 -> 17        -0.16603
      13 -> 27         0.19425

 Excited State  29:      Singlet-B2    12.4645 eV   99.47 nm  f=0.1085  <S**2>=0.000
      10 -> 17         0.15711
      11 -> 16        -0.42032
      11 -> 18         0.48660
      12 -> 19        -0.12994
      12 -> 24         0.13063

 Excited State  30:      Singlet-A1    12.5796 eV   98.56 nm  f=0.0201  <S**2>=0.000
      11 -> 19        -0.12507
      12 -> 23         0.28022
      13 -> 26         0.60596

 Excited State  31:      Singlet-A2    12.6417 eV   98.08 nm  f=0.0000  <S**2>=0.000
      10 -> 16         0.15563
      11 -> 17         0.43274
      12 -> 22         0.47576
      12 -> 25        -0.18872

 Excited State  32:      Singlet-B2    12.9588 eV   95.68 nm  f=0.0071  <S**2>=0.000
      10 -> 17         0.64423
      10 -> 20        -0.11397
      11 -> 16         0.13695
      11 -> 18        -0.11167

 Excited State  33:      Singlet-A2    12.9727 eV   95.57 nm  f=0.0000  <S**2>=0.000
      10 -> 14         0.11325
      10 -> 16        -0.29964
      10 -> 18         0.55087
      11 -> 20        -0.10318
      13 -> 24        -0.11551
      13 -> 28        -0.12439

 Excited State  34:      Singlet-A2    12.9839 eV   95.49 nm  f=0.0000  <S**2>=0.000
      10 -> 21        -0.26674
      11 -> 20        -0.36078
      12 -> 22         0.18030
      12 -> 25         0.36144
      13 -> 28         0.31632

 Excited State  35:      Singlet-A1    13.1686 eV   94.15 nm  f=0.1035  <S**2>=0.000
       8 -> 14        -0.13750
       8 -> 16         0.16404
      11 -> 19         0.42036
      11 -> 24        -0.10384
      12 -> 23        -0.38511
      13 -> 26         0.27553

 Excited State  36:      Singlet-B2    13.2306 eV   93.71 nm  f=0.0019  <S**2>=0.000
      11 -> 18        -0.13814
      11 -> 21        -0.28258
      12 -> 24         0.59488
      12 -> 27        -0.13181

 Excited State  37:      Singlet-A2    13.3159 eV   93.11 nm  f=0.0000  <S**2>=0.000
      10 -> 18         0.18179
      10 -> 21        -0.13772
      11 -> 20         0.25115
      12 -> 25        -0.28964
      13 -> 27        -0.21584
      13 -> 28         0.47552

 Excited State  38:      Singlet-A1    13.3681 eV   92.75 nm  f=0.0589  <S**2>=0.000
       8 -> 14        -0.26325
       8 -> 16         0.11047
      11 -> 19         0.37787
      12 -> 23         0.47515
      13 -> 26        -0.12891

 Excited State  39:      Singlet-B1    13.3768 eV   92.69 nm  f=0.0592  <S**2>=0.000
       9 -> 14         0.51058
       9 -> 16        -0.20649
       9 -> 18        -0.14590
      10 -> 19        -0.35852

 Excited State  40:      Singlet-B2    13.4333 eV   92.30 nm  f=0.0037  <S**2>=0.000
       7 -> 14        -0.21619
      10 -> 17        -0.11072
      11 -> 21         0.53879
      12 -> 24         0.30344
      12 -> 27         0.17150

 Excited State  41:      Singlet-A1    13.6026 eV   91.15 nm  f=0.0010  <S**2>=0.000
       8 -> 14         0.53865
       8 -> 18        -0.21176
      11 -> 15         0.12538
      11 -> 19         0.31617
      11 -> 24         0.10196
      12 -> 23         0.10001

 Excited State  42:      Singlet-B1    13.6274 eV   90.98 nm  f=0.0026  <S**2>=0.000
       8 -> 17         0.17044
       9 -> 14         0.14699
      10 -> 15         0.10300
      11 -> 22         0.51979
      12 -> 26         0.26531
      13 -> 29         0.24339
      13 -> 30        -0.12752

 Excited State  43:      Singlet-A2    13.6649 eV   90.73 nm  f=0.0000  <S**2>=0.000
      11 -> 20         0.49086
      12 -> 25         0.46893

 Excited State  44:      Singlet-B1    13.6775 eV   90.65 nm  f=0.0359  <S**2>=0.000
       9 -> 14         0.34458
       9 -> 16         0.14250
       9 -> 18        -0.15189
      10 -> 15         0.14937
      10 -> 19         0.48725
      11 -> 22        -0.20267

 Excited State  45:      Singlet-B2    13.6813 eV   90.62 nm  f=0.0063  <S**2>=0.000
       7 -> 14         0.63154
      11 -> 21         0.22324

 Excited State  46:      Singlet-B1    13.7319 eV   90.29 nm  f=0.0121  <S**2>=0.000
       9 -> 18         0.10094
      10 -> 19        -0.17170
      11 -> 22        -0.20296
      12 -> 26        -0.13177
      13 -> 29         0.53490
      13 -> 30        -0.26495

 Excited State  47:      Singlet-A2    13.8941 eV   89.24 nm  f=0.0000  <S**2>=0.000
       9 -> 15        -0.11515
      10 -> 21         0.59661
      11 -> 20        -0.17270
      13 -> 27        -0.15305
      13 -> 28         0.21175

 Excited State  48:      Singlet-B2    13.9405 eV   88.94 nm  f=0.0130  <S**2>=0.000
       7 -> 14        -0.12974
      10 -> 17         0.12216
      10 -> 20         0.53306
      11 -> 23        -0.12109
      12 -> 27         0.33166
      12 -> 28         0.13451

 Excited State  49:      Singlet-B2    14.1434 eV   87.66 nm  f=0.2134  <S**2>=0.000
       7 -> 16         0.10167
       8 -> 15        -0.14020
      10 -> 20        -0.36974
      11 -> 21        -0.19911
      11 -> 23        -0.17193
      12 -> 27         0.46379
      12 -> 28         0.10576

 Excited State  50:      Singlet-B1    14.2381 eV   87.08 nm  f=0.0014  <S**2>=0.000
       8 -> 20         0.14629
      11 -> 22        -0.22342
      11 -> 25         0.36204
      12 -> 26         0.43575
      13 -> 30        -0.25101

 Excited State  51:      Singlet-A1    14.3183 eV   86.59 nm  f=0.0157  <S**2>=0.000
       7 -> 15         0.18068
       8 -> 14        -0.24628
       8 -> 16        -0.21831
       8 -> 18        -0.27790
      10 -> 22        -0.27571
      11 -> 24         0.39711

 Excited State  52:      Singlet-B1    14.4006 eV   86.10 nm  f=0.0971  <S**2>=0.000
       9 -> 16        -0.10114
      10 -> 24         0.12083
      12 -> 26         0.21666
      13 -> 29         0.31364
      13 -> 30         0.53772

 Excited State  53:      Singlet-A1    14.5388 eV   85.28 nm  f=0.0006  <S**2>=0.000
       7 -> 15         0.52937
       9 -> 17         0.15746
      10 -> 22         0.36781

 Excited State  54:      Singlet-B1    14.5447 eV   85.24 nm  f=0.0153  <S**2>=0.000
       9 -> 14         0.16105
       9 -> 16         0.35384
       9 -> 18         0.28934
      10 -> 19        -0.12069
      10 -> 24        -0.20079
      11 -> 22        -0.12025
      11 -> 25        -0.21521
      12 -> 26         0.31920

 Excited State  55:      Singlet-B2    14.5822 eV   85.02 nm  f=0.2190  <S**2>=0.000
       7 -> 14         0.10670
       7 -> 16         0.30169
       7 -> 18         0.10700
       8 -> 15         0.53540
      11 -> 23         0.19537
      12 -> 27         0.17949

 Excited State  56:      Singlet-A2    14.5850 eV   85.01 nm  f=0.0000  <S**2>=0.000
       9 -> 15         0.62396
      10 -> 14         0.10291
      10 -> 21         0.10592
      13 -> 28         0.14886
      13 -> 31        -0.19825

 Excited State  57:      Singlet-A1    14.7272 eV   84.19 nm  f=0.0552  <S**2>=0.000
       7 -> 15         0.31059
       8 -> 14         0.11156
       8 -> 16         0.41249
      10 -> 22        -0.34924
      11 -> 19        -0.17727
      12 -> 23         0.10436
      13 -> 33        -0.15318

 Excited State  58:      Singlet-A2    14.7746 eV   83.92 nm  f=0.0000  <S**2>=0.000
       9 -> 15         0.21627
      10 -> 23         0.28688
      13 -> 28        -0.12102
      13 -> 31         0.55981

 Excited State  59:      Singlet-B2    14.7772 eV   83.90 nm  f=0.2587  <S**2>=0.000
       7 -> 16         0.51716
       7 -> 18         0.17519
       8 -> 15        -0.31232
      10 -> 20         0.12826
      12 -> 27        -0.10398
      12 -> 28         0.17700

 Excited State  60:      Singlet-B1    14.8214 eV   83.65 nm  f=0.0884  <S**2>=0.000
       8 -> 17         0.20421
       8 -> 20         0.10060
       9 -> 16         0.39323
       9 -> 21         0.10727
      10 -> 19        -0.15766
      11 -> 25         0.38676
      12 -> 26        -0.22593
      13 -> 30         0.13440

 Excited State  61:      Singlet-B2    14.8379 eV   83.56 nm  f=0.0161  <S**2>=0.000
       7 -> 16        -0.20641
       8 -> 15        -0.14921
      11 -> 23         0.60102
      12 -> 27         0.15190

 Excited State  62:      Singlet-A1    14.9407 eV   82.98 nm  f=0.0768  <S**2>=0.000
       7 -> 15         0.11581
       8 -> 16        -0.17028
       8 -> 21        -0.12314
       9 -> 17         0.25460
      10 -> 22        -0.24202
      10 -> 25         0.18111
      11 -> 24        -0.28154
      11 -> 27         0.17214
      12 -> 29        -0.10387
      13 -> 33         0.36201

 Excited State  63:      Singlet-B1    15.0178 eV   82.56 nm  f=0.0039  <S**2>=0.000
       9 -> 16        -0.11979
      13 -> 32         0.64642

 Excited State  64:      Singlet-A1    15.0684 eV   82.28 nm  f=0.0951  <S**2>=0.000
       8 -> 16         0.32924
       9 -> 17        -0.10090
      10 -> 22         0.10270
      11 -> 24         0.16507
      11 -> 27        -0.12233
      13 -> 33         0.54872

 Excited State  65:      Singlet-A2    15.1611 eV   81.78 nm  f=0.0000  <S**2>=0.000
       7 -> 17         0.67657
       7 -> 20        -0.14529

 Excited State  66:      Singlet-B1    15.1767 eV   81.69 nm  f=0.1936  <S**2>=0.000
       8 -> 17         0.34662
       9 -> 16        -0.27792
       9 -> 18         0.26326
      10 -> 19         0.13003
      10 -> 24        -0.32735
      11 -> 22        -0.10460
      11 -> 25         0.14613
      13 -> 32        -0.10607
      13 -> 34        -0.19151

 Excited State  67:      Singlet-A1    15.2088 eV   81.52 nm  f=0.0000  <S**2>=0.000
       7 -> 15        -0.15991
       8 -> 16         0.16967
       9 -> 17         0.55503
       9 -> 20        -0.13381
      11 -> 24         0.14036
      11 -> 27        -0.15446
      13 -> 36        -0.12301
      13 -> 38        -0.10072

 Excited State  68:      Singlet-B2    15.2467 eV   81.32 nm  f=0.0219  <S**2>=0.000
       7 -> 16        -0.19915
       7 -> 18         0.35304
       7 -> 21        -0.11722
       8 -> 15         0.15665
      12 -> 27        -0.16225
      12 -> 28         0.47433

 Excited State  69:      Singlet-A2    15.3097 eV   80.98 nm  f=0.0000  <S**2>=0.000
       9 -> 19         0.17879
      10 -> 16        -0.11835
      10 -> 23         0.56851
      13 -> 31        -0.29941

 Excited State  70:      Singlet-B1    15.3202 eV   80.93 nm  f=0.0455  <S**2>=0.000
       8 -> 17         0.50679
       8 -> 20        -0.11339
       9 -> 18        -0.19355
       9 -> 21        -0.10805
      10 -> 27         0.10632
      11 -> 22        -0.19090
      11 -> 25        -0.19812
      13 -> 32         0.11591
      13 -> 34         0.19591

 Excited State  71:      Singlet-A1    15.4067 eV   80.47 nm  f=0.1758  <S**2>=0.000
       8 -> 18        -0.21425
       9 -> 20         0.19231
      10 -> 25         0.34153
      11 -> 24        -0.16052
      11 -> 27        -0.28713
      11 -> 28        -0.14407
      12 -> 29         0.28183
      12 -> 30        -0.17215

 Excited State  72:      Singlet-B2    15.4280 eV   80.36 nm  f=0.2331  <S**2>=0.000
       7 -> 16        -0.11428
       7 -> 18         0.52469
      12 -> 28        -0.38717

 Excited State  73:      Singlet-A1    15.4393 eV   80.30 nm  f=0.0053  <S**2>=0.000
       7 -> 15         0.10760
       8 -> 18         0.42961
       9 -> 17         0.13155
      11 -> 24         0.30932
      12 -> 29         0.32453

 Excited State  74:      Singlet-A1    15.4483 eV   80.26 nm  f=0.0010  <S**2>=0.000
       7 -> 19        -0.12301
       8 -> 16         0.19523
       8 -> 21        -0.17636
       9 -> 20         0.16435
      10 -> 22         0.17206
      10 -> 25         0.39481
      11 -> 24         0.18821
      11 -> 27         0.24434
      12 -> 29        -0.23273
      12 -> 30         0.11245
      13 -> 33        -0.11006

 Excited State  75:      Singlet-B1    15.4691 eV   80.15 nm  f=0.0464  <S**2>=0.000
       9 -> 18         0.27190
      10 -> 27         0.10799
      13 -> 34         0.60002

 Excited State  76:      Singlet-A2    15.6551 eV   79.20 nm  f=0.0000  <S**2>=0.000
       8 -> 22        -0.25306
      11 -> 26         0.63428

 Excited State  77:      Singlet-B1    15.6604 eV   79.17 nm  f=0.2001  <S**2>=0.000
       8 -> 17         0.12257
       9 -> 16        -0.10146
       9 -> 18         0.33867
       9 -> 21         0.13728
      10 -> 24         0.48711
      10 -> 27        -0.14392
      11 -> 25        -0.13653
      13 -> 34        -0.11662
      13 -> 35         0.13773

 Excited State  78:      Singlet-A1    15.8031 eV   78.46 nm  f=0.0578  <S**2>=0.000
       8 -> 18        -0.30187
       8 -> 21        -0.18167
      10 -> 25        -0.15381
      11 -> 27         0.36433
      12 -> 29         0.37437
      13 -> 38        -0.15681

 Excited State  79:      Singlet-B1    15.8376 eV   78.28 nm  f=0.0773  <S**2>=0.000
       9 -> 18        -0.13914
       9 -> 21         0.51281
      10 -> 24        -0.21446
      10 -> 27        -0.17077
      10 -> 28         0.10829
      11 -> 25        -0.11821
      12 -> 33         0.10354
      13 -> 32         0.13963
      13 -> 34         0.11183
      13 -> 35         0.21527

 Excited State  80:      Singlet-B2    16.0052 eV   77.47 nm  f=0.0836  <S**2>=0.000
       7 -> 21         0.11846
       8 -> 19         0.44738
       9 -> 22        -0.24072
      10 -> 26         0.41223
      11 -> 23        -0.10634

 Excited State  81:      Singlet-A1    16.0647 eV   77.18 nm  f=0.0349  <S**2>=0.000
       7 -> 19         0.43903
       9 -> 20        -0.10847
      10 -> 25         0.10614
      12 -> 29        -0.14568
      12 -> 30        -0.38786
      13 -> 36        -0.21494
      13 -> 38        -0.14142

 Excited State  82:      Singlet-B2    16.0771 eV   77.12 nm  f=0.2021  <S**2>=0.000
       7 -> 21        -0.36564
       8 -> 19        -0.35374
       9 -> 22        -0.19667
      10 -> 26         0.39003

 Excited State  83:      Singlet-B1    16.1063 eV   76.98 nm  f=0.0142  <S**2>=0.000
       9 -> 21        -0.17023
      10 -> 27         0.12434
      13 -> 35         0.63135

 Excited State  84:      Singlet-A1    16.1149 eV   76.94 nm  f=0.0004  <S**2>=0.000
       7 -> 19         0.29814
       8 -> 21        -0.12640
       9 -> 20        -0.10644
      10 -> 25         0.11924
      11 -> 27        -0.20589
      12 -> 29         0.13858
      12 -> 30         0.44654
      12 -> 32        -0.12085
      13 -> 36        -0.25684

 Excited State  85:      Singlet-A2    16.1192 eV   76.92 nm  f=0.0000  <S**2>=0.000
       9 -> 19         0.63760
      10 -> 23        -0.22668

 Excited State  86:      Singlet-B2    16.1645 eV   76.70 nm  f=0.0000  <S**2>=0.000
       7 -> 21         0.52859
       8 -> 19        -0.29073
      10 -> 26         0.17929
      13 -> 37        -0.20658

 Excited State  87:      Singlet-A2    16.2120 eV   76.48 nm  f=0.0000  <S**2>=0.000
       7 -> 17         0.14854
       7 -> 20         0.67086

 Excited State  88:      Singlet-A1    16.3067 eV   76.03 nm  f=0.0016  <S**2>=0.000
       7 -> 19         0.38154
       8 -> 21         0.25716
       9 -> 17         0.11606
       9 -> 20         0.11048
      11 -> 27         0.12608
      12 -> 30         0.12453
      13 -> 36         0.39567
      13 -> 38         0.12888

 Excited State  89:      Singlet-B1    16.3267 eV   75.94 nm  f=0.0003  <S**2>=0.000
       8 -> 20        -0.11022
       9 -> 21         0.25425
       9 -> 23         0.15779
      10 -> 19        -0.10906
      10 -> 27         0.55072
      10 -> 28         0.17942
      13 -> 34        -0.12821

 The electronic state is 1-A1.
 Alpha  occ. eigenvalues --  -19.26686 -10.33995 -10.33994  -1.13319  -0.81763
 Alpha  occ. eigenvalues --   -0.72735  -0.57066  -0.56554  -0.56527  -0.48164
 Alpha  occ. eigenvalues --   -0.46315  -0.40776  -0.34571
 Alpha virt. eigenvalues --    0.08931   0.11701   0.14316   0.15244   0.15934
 Alpha virt. eigenvalues --    0.18123   0.20021   0.20239   0.21216   0.23701
 Alpha virt. eigenvalues --    0.24762   0.25312   0.28083   0.28138   0.32736

 Mulliken charges:
               1
     1  C    0.534125
     2  O   -0.811995
     3  C    0.534125
     4  H   -0.145946
     5  H    0.008909
     6  H    0.008909
     7  H   -0.145946
     8  H    0.008909
     9  H    0.008909
 Sum of Mulliken charges =   0.00000

 Dipole moment (field-independent basis, Debye):
    X=              0.0000    Y=             -0.0000    Z=             -1.3383  Tot=              1.3383
 Quadrupole moment (field-independent basis, Debye-Ang):
   XX=            -20.1802   YY=            -17.3460   ZZ=            -21.3223
   XY=             -0.0000   XZ=             -0.0000   YZ=              0.0000

 Normal termination of Gaussian 16 at Mon Mar 21 16:08:55 2022.
