 Gaussian 16, Revision C.01,
 Gaussian 16:  EM64L-G16RevC.01  3-Jul-2019

 ----------------------------------------------------------------------
 #P TD(Nstates=10000) wB97XD/Gen SCF(maxcycles=100) Int(Grid=ultrafine)
 ----------------------------------------------------------------------

 ---------------------
 xGDB7_00001_tier4.com
 ---------------------
 Symbolic Z-matrix:
 Charge =  0 Multiplicity = 1

                         Standard orientation:
 ---------------------------------------------------------------------
 Center     Atomic      Atomic             Coordinates (Angstroms)
 Number     Number       Type             X           Y           Z
 ---------------------------------------------------------------------
      1          8           0       -1.023805   -0.438791    0.000000
      2          6           0       -0.000000    0.418952    0.000000
      3          8           0        1.152985    0.109982   -0.000000
      4          1           0       -0.656943   -1.333011    0.000000
      5          1           0       -0.376498    1.449770    0.000000
 ---------------------------------------------------------------------

 SCF Done:  E(RwB97XD) =  -189.575771905     A.U. after   15 cycles

 Excitation energies and oscillator strengths:

 Excited State   1:      Singlet-A"     5.9272 eV  209.18 nm  f=0.0008  <S**2>=0.000
      12 -> 13         0.70427
 This state for optimization and/or second-order correction.
 Total Energy, E(TD-HF/TD-DFT) =  -189.357952784
 Copying the excited state density for this state as the 1-particle RhoCI density.

 Excited State   2:      Singlet-A'     8.2382 eV  150.50 nm  f=0.0297  <S**2>=0.000
      11 -> 13        -0.36655
      12 -> 14         0.58346

 Excited State   3:      Singlet-A'     8.9530 eV  138.48 nm  f=0.1799  <S**2>=0.000
      11 -> 13         0.42304
      12 -> 14         0.29168
      12 -> 15         0.43025
      12 -> 16         0.16642

 Excited State   4:      Singlet-A'     9.0361 eV  137.21 nm  f=0.1104  <S**2>=0.000
      11 -> 13        -0.38057
      12 -> 14        -0.20332
      12 -> 15         0.54305

 Excited State   5:      Singlet-A"     9.0920 eV  136.37 nm  f=0.0033  <S**2>=0.000
      11 -> 14         0.68150
      11 -> 15        -0.10708

 Excited State   6:      Singlet-A"     9.4447 eV  131.27 nm  f=0.0001  <S**2>=0.000
      10 -> 13         0.70155

 Excited State   7:      Singlet-A"    10.2068 eV  121.47 nm  f=0.0001  <S**2>=0.000
      11 -> 14         0.10260
      11 -> 15         0.64990
      12 -> 17        -0.23053

 Excited State   8:      Singlet-A"    10.2423 eV  121.05 nm  f=0.0162  <S**2>=0.000
      11 -> 15         0.23206
      12 -> 17         0.64677
      12 -> 20         0.14642

 Excited State   9:      Singlet-A'    10.2874 eV  120.52 nm  f=0.0956  <S**2>=0.000
      12 -> 14        -0.11524
      12 -> 16         0.62703
      12 -> 18         0.19909
      12 -> 19         0.11436

 Excited State  10:      Singlet-A'    11.1506 eV  111.19 nm  f=0.0320  <S**2>=0.000
      10 -> 14         0.20948
      12 -> 16        -0.16590
      12 -> 18         0.48245
      12 -> 21         0.40773

 Excited State  11:      Singlet-A'    11.2256 eV  110.45 nm  f=0.0500  <S**2>=0.000
      10 -> 14         0.59825
      11 -> 17        -0.23244
      12 -> 21        -0.16339

 Excited State  12:      Singlet-A"    11.3053 eV  109.67 nm  f=0.0515  <S**2>=0.000
       9 -> 14        -0.12994
      11 -> 16         0.66460
      11 -> 21         0.12643

 Excited State  13:      Singlet-A'    11.3479 eV  109.26 nm  f=0.0203  <S**2>=0.000
       9 -> 13        -0.13327
      10 -> 14         0.16959
      11 -> 17         0.52319
      12 -> 19        -0.36604
      12 -> 21        -0.12136

 Excited State  14:      Singlet-A'    11.4916 eV  107.89 nm  f=0.0010  <S**2>=0.000
       9 -> 13         0.19223
      10 -> 14         0.10482
      11 -> 17         0.32099
      12 -> 18         0.12611
      12 -> 19         0.50039
      12 -> 21        -0.21860

 Excited State  15:      Singlet-A'    11.6411 eV  106.51 nm  f=0.0240  <S**2>=0.000
      10 -> 14         0.12997
      11 -> 17         0.22203
      12 -> 18        -0.39349
      12 -> 19         0.10360
      12 -> 21         0.46286
      12 -> 22         0.16530

 Excited State  16:      Singlet-A"    11.8515 eV  104.62 nm  f=0.0027  <S**2>=0.000
       8 -> 13         0.58156
      11 -> 18        -0.26780
      11 -> 21        -0.20844
      12 -> 20         0.13572

 Excited State  17:      Singlet-A"    11.9378 eV  103.86 nm  f=0.0061  <S**2>=0.000
       7 -> 13         0.11724
       8 -> 13         0.17051
      11 -> 16        -0.10035
      11 -> 18         0.39497
      11 -> 21         0.21652
      12 -> 20         0.44801

 Excited State  18:      Singlet-A'    12.0023 eV  103.30 nm  f=0.1646  <S**2>=0.000
       9 -> 13         0.55050
      10 -> 15         0.26192
      11 -> 20         0.10819
      12 -> 19        -0.25141

 Excited State  19:      Singlet-A"    12.0272 eV  103.09 nm  f=0.0087  <S**2>=0.000
       8 -> 13        -0.32065
      11 -> 18        -0.30514
      11 -> 21        -0.13036
      12 -> 17        -0.11897
      12 -> 20         0.49417

 Excited State  20:      Singlet-A'    12.3004 eV  100.80 nm  f=0.0269  <S**2>=0.000
       9 -> 13        -0.28334
      10 -> 15         0.62598

 Excited State  21:      Singlet-A"    12.3773 eV  100.17 nm  f=0.0016  <S**2>=0.000
       7 -> 13         0.17553
       9 -> 14        -0.33146
       9 -> 15         0.19747
      11 -> 18        -0.25549
      11 -> 19         0.45245
      11 -> 21         0.18022

 Excited State  22:      Singlet-A"    12.4952 eV   99.23 nm  f=0.0126  <S**2>=0.000
       7 -> 13         0.65263
      11 -> 19        -0.20670

 Excited State  23:      Singlet-A'    12.6293 eV   98.17 nm  f=0.0537  <S**2>=0.000
      12 -> 21        -0.11711
      12 -> 22         0.66440

 Excited State  24:      Singlet-A"    12.6985 eV   97.64 nm  f=0.0274  <S**2>=0.000
       9 -> 14         0.44761
      11 -> 14        -0.10690
      11 -> 18        -0.24240
      11 -> 21         0.44685

 Excited State  25:      Singlet-A"    12.8444 eV   96.53 nm  f=0.0233  <S**2>=0.000
       9 -> 14         0.36084
      11 -> 16         0.11195
      11 -> 18         0.10918
      11 -> 19         0.43594
      11 -> 21        -0.34037

 Excited State  26:      Singlet-A"    13.1598 eV   94.21 nm  f=0.0005  <S**2>=0.000
      10 -> 17        -0.21104
      12 -> 23         0.65442

 Excited State  27:      Singlet-A'    13.1609 eV   94.21 nm  f=0.0035  <S**2>=0.000
       8 -> 14         0.24171
       9 -> 17        -0.10880
      10 -> 16         0.42288
      11 -> 20         0.46769

 Excited State  28:      Singlet-A'    13.2862 eV   93.32 nm  f=0.0209  <S**2>=0.000
       8 -> 14        -0.30741
      10 -> 16        -0.32070
      10 -> 21        -0.12910
      11 -> 20         0.45537
      12 -> 24         0.14659

 Excited State  29:      Singlet-A"    13.3812 eV   92.66 nm  f=0.0051  <S**2>=0.000
      10 -> 17         0.65989
      12 -> 23         0.20914

 Excited State  30:      Singlet-A"    13.5688 eV   91.37 nm  f=0.0233  <S**2>=0.000
       9 -> 15         0.57687
      11 -> 19        -0.17024
      11 -> 22         0.31812

 Excited State  31:      Singlet-A'    13.6798 eV   90.63 nm  f=0.0300  <S**2>=0.000
      10 -> 16         0.10639
      12 -> 16        -0.10777
      12 -> 24         0.63216

 Excited State  32:      Singlet-A"    13.7158 eV   90.39 nm  f=0.0003  <S**2>=0.000
       9 -> 15        -0.32387
       9 -> 18         0.11655
      11 -> 22         0.58840

 Excited State  33:      Singlet-A'    13.8234 eV   89.69 nm  f=0.0173  <S**2>=0.000
       8 -> 14         0.48383
       8 -> 15        -0.21348
      10 -> 16        -0.31540
      10 -> 18        -0.23407
      10 -> 19         0.13864

 Excited State  34:      Singlet-A'    14.1544 eV   87.59 nm  f=0.0941  <S**2>=0.000
       8 -> 16         0.15272
       9 -> 17         0.10398
      10 -> 16        -0.16602
      10 -> 18         0.53346
      10 -> 19         0.13017
      10 -> 21         0.13973
      11 -> 20         0.14302
      11 -> 23        -0.22595

 Excited State  35:      Singlet-A'    14.3761 eV   86.24 nm  f=0.0208  <S**2>=0.000
       7 -> 14         0.13824
       8 -> 14         0.18972
       8 -> 15         0.29703
      10 -> 16        -0.15076
      10 -> 18         0.19210
      10 -> 19        -0.26835
      10 -> 21        -0.15994
      11 -> 23         0.37724
      12 -> 25        -0.11927
      12 -> 27        -0.13544

 Excited State  36:      Singlet-A'    14.4616 eV   85.73 nm  f=0.0280  <S**2>=0.000
       7 -> 14         0.17108
       8 -> 14        -0.10519
       8 -> 15        -0.27189
      10 -> 19         0.28091
      10 -> 21         0.23205
      11 -> 23         0.46470

 Excited State  37:      Singlet-A"    14.5448 eV   85.24 nm  f=0.0305  <S**2>=0.000
       9 -> 16        -0.30197
      11 -> 24         0.58548
      11 -> 27         0.12123

 Excited State  38:      Singlet-A'    14.6814 eV   84.45 nm  f=0.0595  <S**2>=0.000
       7 -> 14         0.50551
       9 -> 17        -0.16690
      12 -> 25         0.38869
      12 -> 27         0.10222

 Excited State  39:      Singlet-A'    14.7449 eV   84.09 nm  f=0.1043  <S**2>=0.000
       7 -> 14        -0.19199
       8 -> 14         0.10432
       8 -> 15         0.18135
       8 -> 16        -0.16032
       9 -> 17         0.29266
      10 -> 18        -0.11262
      10 -> 19        -0.16131
      10 -> 21         0.39250
      12 -> 25         0.26307

 Excited State  40:      Singlet-A'    14.8263 eV   83.62 nm  f=0.0295  <S**2>=0.000
       7 -> 14        -0.10473
       8 -> 15         0.39937
       8 -> 16         0.12761
       9 -> 17        -0.15074
      10 -> 19         0.44100
      10 -> 22        -0.12508
      12 -> 25         0.14741
      12 -> 27        -0.13471

 Excited State  41:      Singlet-A'    14.8837 eV   83.30 nm  f=0.0872  <S**2>=0.000
       7 -> 14        -0.23695
       7 -> 15         0.11430
       8 -> 15        -0.24758
      10 -> 18         0.17403
      10 -> 21        -0.20783
      11 -> 23         0.12170
      12 -> 24         0.12998
      12 -> 25         0.45135
      12 -> 27        -0.10967

 Excited State  42:      Singlet-A"    14.9242 eV   83.08 nm  f=0.0286  <S**2>=0.000
       8 -> 17         0.35474
      10 -> 20         0.59451

 Excited State  43:      Singlet-A'    14.9878 eV   82.72 nm  f=0.0275  <S**2>=0.000
       7 -> 15        -0.21962
       9 -> 17         0.51966
      10 -> 16         0.11377
      10 -> 21        -0.32219
      12 -> 25         0.10622

 Excited State  44:      Singlet-A"    15.0025 eV   82.64 nm  f=0.0238  <S**2>=0.000
       9 -> 16         0.56693
       9 -> 21         0.14791
      11 -> 24         0.32093

 Excited State  45:      Singlet-A'    15.4062 eV   80.48 nm  f=0.0625  <S**2>=0.000
       7 -> 14         0.15486
       7 -> 15         0.62580
       9 -> 17         0.15702
      10 -> 19         0.12499

 Excited State  46:      Singlet-A"    15.4214 eV   80.40 nm  f=0.0530  <S**2>=0.000
       6 -> 13        -0.14577
       9 -> 16        -0.15792
       9 -> 18         0.40496
       9 -> 19         0.15229
       9 -> 21         0.31954
      11 -> 25        -0.30793
      12 -> 26         0.13960

 Excited State  47:      Singlet-A'    15.6096 eV   79.43 nm  f=0.1280  <S**2>=0.000
       7 -> 14        -0.11917
       8 -> 15         0.10457
       8 -> 16        -0.16292
      10 -> 19         0.12930
      10 -> 21        -0.12410
      10 -> 22         0.37426
      11 -> 23         0.11386
      12 -> 27         0.43594

 Excited State  48:      Singlet-A'    15.6905 eV   79.02 nm  f=0.0388  <S**2>=0.000
       8 -> 16         0.15816
       8 -> 18         0.23256
      10 -> 22        -0.42134
      12 -> 27         0.42214

 Excited State  49:      Singlet-A"    15.6969 eV   78.99 nm  f=0.0175  <S**2>=0.000
      10 -> 23        -0.15101
      11 -> 25         0.34186
      12 -> 26         0.58402

 Excited State  50:      Singlet-A"    15.7280 eV   78.83 nm  f=0.0002  <S**2>=0.000
       9 -> 18         0.33581
       9 -> 21         0.11654
      11 -> 25         0.49371
      12 -> 26        -0.32030

 Excited State  51:      Singlet-A"    15.9476 eV   77.74 nm  f=0.0580  <S**2>=0.000
       6 -> 13        -0.11503
       9 -> 18        -0.20951
       9 -> 19         0.41586
       9 -> 21         0.23680
      11 -> 24        -0.12192
      11 -> 27         0.39210

 Excited State  52:      Singlet-A'    16.0375 eV   77.31 nm  f=0.0120  <S**2>=0.000
       8 -> 16         0.52677
       8 -> 21         0.19538
      10 -> 18        -0.17206
      10 -> 21         0.13032
      10 -> 22         0.27800

 Excited State  53:      Singlet-A"    16.0487 eV   77.26 nm  f=0.0018  <S**2>=0.000
       8 -> 17         0.59287
      10 -> 20        -0.35726

 Excited State  54:      Singlet-A"    16.1480 eV   76.78 nm  f=0.0039  <S**2>=0.000
       9 -> 18         0.21375
       9 -> 19        -0.28851
       9 -> 21        -0.13754
      10 -> 23         0.23209
      11 -> 27         0.46420
      11 -> 32        -0.14156

 Excited State  55:      Singlet-A"    16.2842 eV   76.14 nm  f=0.0002  <S**2>=0.000
       7 -> 17         0.24426
      10 -> 23         0.57787
      11 -> 27        -0.18015
      12 -> 26         0.14029

 Excited State  56:      Singlet-A'    16.2970 eV   76.08 nm  f=0.0002  <S**2>=0.000
       7 -> 16         0.10187
       8 -> 18         0.10804
       8 -> 21         0.11207
       9 -> 20        -0.16441
      12 -> 28         0.60971
      12 -> 30         0.13488

 Excited State  57:      Singlet-A"    16.4427 eV   75.40 nm  f=0.0222  <S**2>=0.000
       6 -> 13        -0.13519
       9 -> 18        -0.23548
       9 -> 19        -0.42976
       9 -> 21         0.44431

 Excited State  58:      Singlet-A'    16.5425 eV   74.95 nm  f=0.0098  <S**2>=0.000
       7 -> 16         0.17755
       8 -> 18        -0.24339
       8 -> 19        -0.21227
       9 -> 20        -0.24410
      10 -> 24         0.46025
      11 -> 26        -0.20459

 Excited State  59:      Singlet-A'    16.6119 eV   74.64 nm  f=0.0488  <S**2>=0.000
       7 -> 16         0.16646
       8 -> 19        -0.11931
       8 -> 21         0.12791
       9 -> 20         0.53519
      10 -> 24         0.28094
      11 -> 26         0.19733

 Excited State  60:      Singlet-A"    16.6734 eV   74.36 nm  f=0.0132  <S**2>=0.000
       7 -> 17         0.64075
      10 -> 23        -0.25590

 Excited State  61:      Singlet-A'    16.7153 eV   74.17 nm  f=0.0056  <S**2>=0.000
       7 -> 16         0.33470
       7 -> 18         0.13820
       7 -> 21         0.16298
       8 -> 16        -0.12353
       8 -> 18         0.20417
       8 -> 19         0.20044
       8 -> 21         0.25460
      11 -> 26        -0.27335
      12 -> 28        -0.19057

 Excited State  62:      Singlet-A'    16.7912 eV   73.84 nm  f=0.0014  <S**2>=0.000
       7 -> 16         0.42726
       8 -> 18        -0.11710
       8 -> 19         0.10399
       8 -> 21        -0.10535
       9 -> 20        -0.16798
      10 -> 24        -0.12997
      11 -> 26         0.40373

 Excited State  63:      Singlet-A'    16.8943 eV   73.39 nm  f=0.0456  <S**2>=0.000
       7 -> 16        -0.10340
       8 -> 16        -0.11637
       8 -> 18         0.30200
       8 -> 19        -0.22514
       8 -> 21         0.22247
       9 -> 20        -0.24671
      10 -> 24         0.13607
      11 -> 26         0.32369
      12 -> 30        -0.10327

 Excited State  64:      Singlet-A'    17.0830 eV   72.58 nm  f=0.0769  <S**2>=0.000
       7 -> 16        -0.20910
       7 -> 18         0.12122
       8 -> 18        -0.25088
       8 -> 19         0.37919
       8 -> 21         0.24528
      10 -> 22        -0.16901
      10 -> 24         0.19215
      11 -> 26         0.15858
      12 -> 30         0.10715
      12 -> 32        -0.11219

 Excited State  65:      Singlet-A'    17.1318 eV   72.37 nm  f=0.0015  <S**2>=0.000
       7 -> 16         0.11180
       7 -> 21        -0.14834
       8 -> 18        -0.10871
       8 -> 21         0.15301
      12 -> 29         0.58491
      12 -> 30        -0.20949

 Excited State  66:      Singlet-A"    17.1350 eV   72.36 nm  f=0.0685  <S**2>=0.000
       6 -> 13         0.54252
       9 -> 21         0.16936
      12 -> 31        -0.34800

 Excited State  67:      Singlet-A"    17.2015 eV   72.08 nm  f=0.0093  <S**2>=0.000
       9 -> 18        -0.11009
       9 -> 22         0.60731
      11 -> 28         0.24679

 Excited State  68:      Singlet-A'    17.2903 eV   71.71 nm  f=0.0429  <S**2>=0.000
       7 -> 18        -0.10245
       8 -> 18        -0.26687
       8 -> 19        -0.20535
       8 -> 21         0.38339
      10 -> 24        -0.18128
      12 -> 29        -0.31106
      12 -> 30        -0.17179
      12 -> 32         0.10546

 Excited State  69:      Singlet-A'    17.3784 eV   71.34 nm  f=0.0141  <S**2>=0.000
       7 -> 16        -0.12290
       7 -> 18         0.39623
       7 -> 21         0.20202
       8 -> 21        -0.12197
      12 -> 27         0.12706
      12 -> 28         0.16615
      12 -> 30        -0.36126
      12 -> 32         0.21356

 Excited State  70:      Singlet-A"    17.4521 eV   71.04 nm  f=0.0465  <S**2>=0.000
       6 -> 13         0.14920
       8 -> 20         0.63227
      12 -> 31         0.16521

 Excited State  71:      Singlet-A'    17.4998 eV   70.85 nm  f=0.0350  <S**2>=0.000
       7 -> 18         0.30641
       7 -> 19         0.10879
       7 -> 21         0.16768
       8 -> 18        -0.13339
       8 -> 19        -0.26404
       9 -> 23        -0.17099
      10 -> 24        -0.17742
      10 -> 25        -0.10098
      10 -> 27        -0.10185
      12 -> 29         0.14246
      12 -> 30         0.34675

 Excited State  72:      Singlet-A"    17.5497 eV   70.65 nm  f=0.0109  <S**2>=0.000
       6 -> 13         0.22797
       9 -> 21         0.12199
       9 -> 22        -0.19898
      11 -> 28         0.48338
      12 -> 31         0.33363

 Excited State  73:      Singlet-A"    17.5918 eV   70.48 nm  f=0.1652  <S**2>=0.000
       6 -> 13         0.16562
       8 -> 20        -0.23106
       9 -> 22         0.11342
       9 -> 24         0.18767
      11 -> 28        -0.35978
      12 -> 31         0.45247

 Excited State  74:      Singlet-A'    17.6807 eV   70.12 nm  f=0.0269  <S**2>=0.000
       8 -> 19        -0.19241
       8 -> 22         0.15724
       9 -> 23         0.45263
      10 -> 25         0.34988
      11 -> 26         0.14272
      11 -> 31        -0.11500
      12 -> 32        -0.16013

 Excited State  75:      Singlet-A'    17.8300 eV   69.54 nm  f=0.0724  <S**2>=0.000
       7 -> 18        -0.16949
       7 -> 19         0.36674
       7 -> 21         0.23211
       8 -> 22        -0.20025
       9 -> 23         0.27190
      10 -> 25        -0.33381

 Excited State  76:      Singlet-A'    17.9301 eV   69.15 nm  f=0.0637  <S**2>=0.000
       7 -> 18        -0.19304
       7 -> 19         0.32461
       7 -> 21         0.18411
       9 -> 23        -0.29987
      10 -> 25         0.40537
      12 -> 32         0.13584

 Excited State  77:      Singlet-A"    18.0132 eV   68.83 nm  f=0.0332  <S**2>=0.000
       9 -> 24         0.54589
       9 -> 27         0.11007
      11 -> 28         0.10506
      11 -> 30         0.30598
      12 -> 31        -0.10706

 Excited State  78:      Singlet-A'    18.0241 eV   68.79 nm  f=0.0020  <S**2>=0.000
       7 -> 19        -0.18355
       8 -> 22        -0.30338
       9 -> 23         0.16123
      10 -> 25         0.14497
      10 -> 27         0.28939
      10 -> 28         0.10236
      12 -> 30         0.19607
      12 -> 32         0.35479

 Excited State  79:      Singlet-A"    18.2662 eV   67.88 nm  f=0.0002  <S**2>=0.000
       9 -> 24        -0.28157
      11 -> 27        -0.11057
      11 -> 28        -0.14543
      11 -> 29         0.29579
      11 -> 30         0.38484
      11 -> 32        -0.34840

 Excited State  80:      Singlet-A'    18.3110 eV   67.71 nm  f=0.0631  <S**2>=0.000
       6 -> 14         0.19338
       8 -> 22         0.41475
       8 -> 24         0.12166
      10 -> 25        -0.12369
      12 -> 30         0.17442
      12 -> 32         0.36708

 Excited State  81:      Singlet-A'    18.3246 eV   67.66 nm  f=0.0669  <S**2>=0.000
       6 -> 14        -0.20100
       7 -> 19         0.22285
       7 -> 21        -0.16420
       8 -> 22         0.24488
      10 -> 24        -0.10010
      10 -> 27         0.47047
      10 -> 32        -0.11364
      11 -> 31        -0.11977

 Excited State  82:      Singlet-A'    18.4071 eV   67.36 nm  f=0.0437  <S**2>=0.000
       6 -> 14        -0.14995
       7 -> 16        -0.11247
       7 -> 18        -0.25106
       7 -> 19        -0.30655
       7 -> 21         0.44078
       8 -> 22         0.21146
      10 -> 27         0.12973

 Excited State  83:      Singlet-A"    18.4213 eV   67.30 nm  f=0.0014  <S**2>=0.000
      11 -> 29         0.56087
      11 -> 30        -0.37069

 Excited State  84:      Singlet-A"    18.4970 eV   67.03 nm  f=0.0002  <S**2>=0.000
       7 -> 20         0.67490

 Excited State  85:      Singlet-A'    18.5714 eV   66.76 nm  f=0.0683  <S**2>=0.000
       6 -> 14         0.48907
      10 -> 27         0.10328
      11 -> 31        -0.44049

 Excited State  86:      Singlet-A"    18.6702 eV   66.41 nm  f=0.1507  <S**2>=0.000
       7 -> 20        -0.13656
       8 -> 23         0.39514
      10 -> 26         0.51676

 Excited State  87:      Singlet-A"    18.7592 eV   66.09 nm  f=0.0024  <S**2>=0.000
      11 -> 27         0.12172
      11 -> 29         0.24947
      11 -> 30         0.28507
      11 -> 32         0.54578

 The electronic state is 1-A'.
 Alpha  occ. eigenvalues --  -19.33408 -19.27621 -10.45077  -1.22601  -1.13467
 Alpha  occ. eigenvalues --   -0.77272  -0.62748  -0.59182  -0.55944  -0.50835
 Alpha  occ. eigenvalues --   -0.43404  -0.39129
 Alpha virt. eigenvalues --    0.05937   0.07983   0.10378   0.14823   0.15267
 Alpha virt. eigenvalues --    0.18244   0.19100   0.20686   0.20694   0.23544
 Alpha virt. eigenvalues --    0.27707   0.28493   0.31716   0.35560   0.35664

 Mulliken charges:
               1
     1  O   -0.264195
     2  C    0.618168
     3  O   -0.340588
     4  H    0.184001
     5  H   -0.197387
 Sum of Mulliken charges =  -0.00000

 Dipole moment (field-independent basis, Debye):
    X=             -1.5730    Y=             -0.2873    Z=             -0.0000  Tot=              1.5990
 Quadrupole moment (field-independent basis, Debye-Ang):
   XX=            -22.3142   YY=            -12.8381   ZZ=            -17.0917
   XY=             -0.0235   XZ=              0.0000   YZ=             -0.0000

 Normal termination of Gaussian 16 at Thu Aug 19 03:59:14 2021.
