 Gaussian 16, Revision C.01,
 Gaussian 16:  EM64L-G16RevC.01  3-Jul-2019

 ----------------------------------------------------------------------
 #P TD(Nstates=10000) wB97XD/Gen SCF(maxcycles=100) Int(Grid=ultrafine)
 ----------------------------------------------------------------------

 ---------------------
 xGDB7_00001_tier4.com
 ---------------------
 Symbolic Z-matrix:
 Charge =  0 Multiplicity = 1

                         Standard orientation:
 ---------------------------------------------------------------------
 Center     Atomic      Atomic             Coordinates (Angstroms)
 Number     Number       Type             X           Y           Z
 ---------------------------------------------------------------------
      1          7           0        1.111035   -0.177046   -0.052467
      2          6           0       -0.122009    0.419593    0.001774
      3          7           0       -1.267607   -0.121443    0.008098
      4          1           0        1.920558    0.367802    0.180104
      5          1           0        1.180700   -1.165617    0.115308
      6          1           0       -0.065701    1.508813    0.004046
      7          1           0       -1.207497   -1.139126    0.000481
 ---------------------------------------------------------------------

 SCF Done:  E(RwB97XD) =  -149.857125986     A.U. after   15 cycles

 Excitation energies and oscillator strengths:

 Excited State   1:      Singlet-A      6.3738 eV  194.52 nm  f=0.0070  <S**2>=0.000
      11 -> 13        -0.18565
      11 -> 14         0.65088
      12 -> 13         0.10566
      12 -> 14        -0.15218
 This state for optimization and/or second-order correction.
 Total Energy, E(TD-HF/TD-DFT) =  -149.622894307
 Copying the excited state density for this state as the 1-particle RhoCI density.

 Excited State   2:      Singlet-A      6.7646 eV  183.28 nm  f=0.0030  <S**2>=0.000
      12 -> 13         0.67805

 Excited State   3:      Singlet-A      7.2700 eV  170.54 nm  f=0.1774  <S**2>=0.000
      11 -> 13         0.17753
      11 -> 14         0.21011
      12 -> 14         0.63159

 Excited State   4:      Singlet-A      7.6604 eV  161.85 nm  f=0.0007  <S**2>=0.000
      11 -> 13         0.12391
      12 -> 15         0.66150
      12 -> 16        -0.12469

 Excited State   5:      Singlet-A      7.7049 eV  160.92 nm  f=0.1375  <S**2>=0.000
      11 -> 13         0.55748
      11 -> 14         0.10906
      11 -> 15         0.14079
      11 -> 16        -0.29039
      12 -> 14        -0.18695
      12 -> 15        -0.13686

 Excited State   6:      Singlet-A      8.2983 eV  149.41 nm  f=0.0405  <S**2>=0.000
      10 -> 13         0.10891
      12 -> 15         0.14069
      12 -> 16         0.66458

 Excited State   7:      Singlet-A      8.3885 eV  147.80 nm  f=0.0908  <S**2>=0.000
      11 -> 13        -0.16947
      11 -> 15         0.65609
      11 -> 17         0.11995

 Excited State   8:      Singlet-A      9.0878 eV  136.43 nm  f=0.0343  <S**2>=0.000
      11 -> 13         0.25658
      11 -> 15         0.13316
      11 -> 16         0.59842
      11 -> 17        -0.15089

 Excited State   9:      Singlet-A      9.4202 eV  131.62 nm  f=0.0074  <S**2>=0.000
      10 -> 15        -0.13783
      12 -> 17         0.66169

 Excited State  10:      Singlet-A      9.6659 eV  128.27 nm  f=0.0033  <S**2>=0.000
      12 -> 18         0.68353

 Excited State  11:      Singlet-A     10.2870 eV  120.52 nm  f=0.0007  <S**2>=0.000
       9 -> 13        -0.18996
       9 -> 14         0.66545

 Excited State  12:      Singlet-A     10.4215 eV  118.97 nm  f=0.0147  <S**2>=0.000
      10 -> 13         0.12180
      10 -> 14        -0.19189
      11 -> 16         0.13166
      11 -> 17         0.60333
      11 -> 18        -0.14454

 Excited State  13:      Singlet-A     10.5323 eV  117.72 nm  f=0.0547  <S**2>=0.000
      10 -> 13         0.64993
      11 -> 18         0.11592
      12 -> 19        -0.12694

 Excited State  14:      Singlet-A     10.5771 eV  117.22 nm  f=0.0373  <S**2>=0.000
      10 -> 13        -0.12059
      11 -> 17         0.13580
      11 -> 18         0.60511
      11 -> 20        -0.13086
      12 -> 19        -0.10755
      12 -> 20         0.16860

 Excited State  15:      Singlet-A     10.5952 eV  117.02 nm  f=0.0174  <S**2>=0.000
      10 -> 13         0.12308
      10 -> 14         0.24047
      11 -> 17         0.11634
      11 -> 18         0.12677
      12 -> 19         0.59911

 Excited State  16:      Singlet-A     10.6355 eV  116.58 nm  f=0.0270  <S**2>=0.000
      10 -> 14        -0.28606
      10 -> 15         0.13056
      11 -> 17        -0.12905
      11 -> 18        -0.14194
      12 -> 20         0.56770

 Excited State  17:      Singlet-A     10.8606 eV  114.16 nm  f=0.0636  <S**2>=0.000
       9 -> 13        -0.12603
      10 -> 14         0.49777
      12 -> 19        -0.27304
      12 -> 20         0.31298
      12 -> 21         0.13848

 Excited State  18:      Singlet-A     11.2514 eV  110.19 nm  f=0.0887  <S**2>=0.000
      10 -> 15        -0.23897
      11 -> 19         0.21609
      11 -> 20        -0.27160
      11 -> 21        -0.14761
      12 -> 21         0.48603

 Excited State  19:      Singlet-A     11.2803 eV  109.91 nm  f=0.0645  <S**2>=0.000
      10 -> 15         0.12259
      11 -> 19         0.56926
      11 -> 21        -0.22631
      11 -> 24         0.15111
      12 -> 21        -0.24336

 Excited State  20:      Singlet-A     11.4409 eV  108.37 nm  f=0.0313  <S**2>=0.000
      10 -> 15         0.56497
      11 -> 20        -0.26911
      12 -> 17         0.12460
      12 -> 20        -0.11381
      12 -> 21         0.18439
      12 -> 22        -0.11933

 Excited State  21:      Singlet-A     11.5116 eV  107.70 nm  f=0.0027  <S**2>=0.000
       9 -> 13         0.36558
       9 -> 14         0.10466
      10 -> 15         0.15168
      11 -> 18         0.11487
      11 -> 20         0.44990
      12 -> 21         0.25806

 Excited State  22:      Singlet-A     11.5809 eV  107.06 nm  f=0.0509  <S**2>=0.000
       9 -> 13         0.52353
       9 -> 14         0.14650
      10 -> 14         0.17549
      11 -> 20        -0.26615
      12 -> 21        -0.19862

 Excited State  23:      Singlet-A     11.7668 eV  105.37 nm  f=0.0092  <S**2>=0.000
      10 -> 15         0.10482
      12 -> 22         0.66770

 Excited State  24:      Singlet-A     11.8518 eV  104.61 nm  f=0.0203  <S**2>=0.000
      11 -> 19         0.22516
      11 -> 20        -0.13870
      11 -> 21         0.58536
      11 -> 22         0.22293
      11 -> 26         0.11934

 Excited State  25:      Singlet-A     12.0398 eV  102.98 nm  f=0.0587  <S**2>=0.000
      10 -> 15         0.10476
      10 -> 16         0.24143
      10 -> 17        -0.10014
      10 -> 18         0.10103
      12 -> 23         0.61384

 Excited State  26:      Singlet-A     12.1355 eV  102.17 nm  f=0.0566  <S**2>=0.000
       9 -> 15        -0.10087
      10 -> 16        -0.10688
      11 -> 19        -0.10221
      11 -> 21        -0.19190
      11 -> 22         0.60642

 Excited State  27:      Singlet-A     12.1489 eV  102.05 nm  f=0.0612  <S**2>=0.000
      10 -> 16         0.61168
      11 -> 22         0.12169
      12 -> 23        -0.25384

 Excited State  28:      Singlet-A     12.3204 eV  100.63 nm  f=0.2318  <S**2>=0.000
       9 -> 15         0.66125

 Excited State  29:      Singlet-A     12.5789 eV   98.57 nm  f=0.0738  <S**2>=0.000
      11 -> 18         0.10567
      11 -> 22         0.11110
      11 -> 23         0.57877
      11 -> 25        -0.11046
      12 -> 24        -0.29132

 Excited State  30:      Singlet-A     12.8451 eV   96.52 nm  f=0.0448  <S**2>=0.000
       9 -> 15         0.12317
       9 -> 16         0.50396
      11 -> 23        -0.19387
      12 -> 24        -0.38613

 Excited State  31:      Singlet-A     13.0743 eV   94.83 nm  f=0.0691  <S**2>=0.000
       8 -> 13        -0.19591
       8 -> 14         0.30210
       9 -> 16         0.36833
      11 -> 23         0.20625
      12 -> 24         0.37688

 Excited State  32:      Singlet-A     13.1050 eV   94.61 nm  f=0.0351  <S**2>=0.000
       7 -> 14         0.11435
       8 -> 14         0.51152
       9 -> 16        -0.22700
      10 -> 17         0.10146
      10 -> 18        -0.16691
      11 -> 23        -0.10722
      12 -> 24        -0.22918
      12 -> 25        -0.17509

 Excited State  33:      Singlet-A     13.1663 eV   94.17 nm  f=0.0483  <S**2>=0.000
       8 -> 14         0.22055
      10 -> 18         0.22934
      12 -> 25         0.56588
      12 -> 27        -0.13178

 Excited State  34:      Singlet-A     13.2569 eV   93.52 nm  f=0.0111  <S**2>=0.000
       8 -> 14        -0.11476
      10 -> 17         0.65162

 Excited State  35:      Singlet-A     13.3726 eV   92.71 nm  f=0.0098  <S**2>=0.000
      11 -> 19        -0.16812
      11 -> 24         0.65127
      11 -> 32         0.11134

 Excited State  36:      Singlet-A     13.4745 eV   92.01 nm  f=0.0248  <S**2>=0.000
      10 -> 18         0.55089
      12 -> 23        -0.10872
      12 -> 25        -0.32524
      12 -> 26        -0.13537
      12 -> 27        -0.14810

 Excited State  37:      Singlet-A     13.6752 eV   90.66 nm  f=0.1374  <S**2>=0.000
      10 -> 18         0.16255
      10 -> 21        -0.16627
      12 -> 26         0.63146

 Excited State  38:      Singlet-A     14.0163 eV   88.46 nm  f=0.1095  <S**2>=0.000
       7 -> 14         0.12286
      10 -> 18         0.13247
      10 -> 19        -0.13737
      10 -> 20        -0.32727
      12 -> 27         0.51910

 Excited State  39:      Singlet-A     14.0601 eV   88.18 nm  f=0.0853  <S**2>=0.000
       8 -> 13         0.19388
       8 -> 15         0.10074
       9 -> 17         0.22851
       9 -> 18        -0.12205
      11 -> 25         0.57943

 Excited State  40:      Singlet-A     14.1544 eV   87.59 nm  f=0.0387  <S**2>=0.000
       8 -> 15         0.12480
       9 -> 17         0.50529
      10 -> 19         0.29162
      11 -> 25        -0.25837
      12 -> 24         0.11889

 Excited State  41:      Singlet-A     14.2175 eV   87.21 nm  f=0.0030  <S**2>=0.000
       8 -> 13         0.10181
       9 -> 17        -0.15399
       9 -> 18         0.51123
      10 -> 19         0.32090
      10 -> 20        -0.11892
      11 -> 26         0.11304
      12 -> 24         0.11486

 Excited State  42:      Singlet-A     14.2888 eV   86.77 nm  f=0.0010  <S**2>=0.000
       7 -> 13        -0.17542
       7 -> 14         0.45821
       8 -> 13        -0.12436
       8 -> 14        -0.16001
       9 -> 17         0.10234
      11 -> 26         0.40289

 Excited State  43:      Singlet-A     14.3384 eV   86.47 nm  f=0.1440  <S**2>=0.000
       7 -> 13        -0.12219
       7 -> 14         0.16390
       8 -> 13         0.48524
       9 -> 17        -0.26540
       9 -> 18        -0.21564
      11 -> 25        -0.15954
      11 -> 27        -0.14162

 Excited State  44:      Singlet-A     14.4359 eV   85.89 nm  f=0.0038  <S**2>=0.000
       7 -> 13         0.17962
       7 -> 14        -0.22635
       9 -> 18        -0.23305
      10 -> 18         0.10023
      10 -> 19         0.30037
      10 -> 20         0.13883
      11 -> 26         0.37000
      12 -> 27         0.21558

 Excited State  45:      Singlet-A     14.4570 eV   85.76 nm  f=0.0196  <S**2>=0.000
       7 -> 14        -0.30346
       8 -> 13         0.20885
       8 -> 14         0.12847
       9 -> 18         0.14344
      10 -> 19        -0.29039
      10 -> 20        -0.17069
      11 -> 26         0.36283

 Excited State  46:      Singlet-A     14.4927 eV   85.55 nm  f=0.0110  <S**2>=0.000
       7 -> 13        -0.12432
       9 -> 18         0.22683
      10 -> 18         0.11383
      10 -> 19        -0.14526
      10 -> 20         0.51815
      12 -> 27         0.22447

 Excited State  47:      Singlet-A     14.7835 eV   83.87 nm  f=0.1150  <S**2>=0.000
       7 -> 13         0.56176
       7 -> 14         0.20377
       8 -> 13         0.15684
       9 -> 19         0.14611
       9 -> 20         0.17932

 Excited State  48:      Singlet-A     14.9182 eV   83.11 nm  f=0.0747  <S**2>=0.000
       8 -> 13         0.12395
       8 -> 15        -0.13448
       9 -> 19        -0.10403
      10 -> 21         0.48753
      11 -> 27         0.34260
      12 -> 26         0.16918
      12 -> 28        -0.13611

 Excited State  49:      Singlet-A     15.0117 eV   82.59 nm  f=0.0585  <S**2>=0.000
       9 -> 19         0.57173
       9 -> 20        -0.18405
      11 -> 27         0.21705
      12 -> 29        -0.12944

 Excited State  50:      Singlet-A     15.0531 eV   82.36 nm  f=0.0217  <S**2>=0.000
       8 -> 15         0.16903
       8 -> 16        -0.13427
       9 -> 19         0.17594
       9 -> 20        -0.23029
      10 -> 21         0.38255
      11 -> 27        -0.34697
      12 -> 28        -0.12445

 Excited State  51:      Singlet-A     15.1744 eV   81.71 nm  f=0.0148  <S**2>=0.000
       8 -> 15         0.15395
      10 -> 21        -0.10406
      10 -> 23        -0.15625
      12 -> 27         0.10405
      12 -> 28        -0.27885
      12 -> 29         0.51258
      12 -> 30        -0.13696
      12 -> 31         0.16187

 Excited State  52:      Singlet-A     15.2149 eV   81.49 nm  f=0.0238  <S**2>=0.000
       8 -> 15         0.50503
       9 -> 17        -0.13465
       9 -> 20         0.19026
      11 -> 27         0.12088
      12 -> 28        -0.14732
      12 -> 29        -0.25860
      12 -> 32         0.12747

 Excited State  53:      Singlet-A     15.2852 eV   81.11 nm  f=0.0323  <S**2>=0.000
       7 -> 13        -0.16177
       7 -> 15        -0.10632
       8 -> 16        -0.14741
       9 -> 19         0.21663
       9 -> 20         0.47469
      10 -> 19         0.11686
      10 -> 21         0.13421
      11 -> 27        -0.12403
      12 -> 28         0.20891

 Excited State  54:      Singlet-A     15.3007 eV   81.03 nm  f=0.0207  <S**2>=0.000
       8 -> 15         0.26658
       9 -> 20        -0.16952
      10 -> 22        -0.10582
      10 -> 23        -0.13822
      11 -> 27         0.11263
      12 -> 28         0.51502
      12 -> 29         0.13810
      12 -> 31         0.10000

 Excited State  55:      Singlet-A     15.4191 eV   80.41 nm  f=0.0008  <S**2>=0.000
      10 -> 22         0.42874
      12 -> 29         0.14811
      12 -> 30         0.48968

 Excited State  56:      Singlet-A     15.6371 eV   79.29 nm  f=0.0783  <S**2>=0.000
       7 -> 15        -0.21457
       8 -> 16        -0.22921
       9 -> 21         0.51827
      10 -> 22         0.12346
      12 -> 32         0.16317

 Excited State  57:      Singlet-A     15.7005 eV   78.97 nm  f=0.0804  <S**2>=0.000
       8 -> 16         0.11948
       9 -> 20         0.11758
       9 -> 21         0.32865
      10 -> 22        -0.30445
      10 -> 23         0.13422
      12 -> 27        -0.10325
      12 -> 30         0.31476
      12 -> 32        -0.24236

 Excited State  58:      Singlet-A     15.7903 eV   78.52 nm  f=0.0327  <S**2>=0.000
      11 -> 28        -0.26027
      11 -> 29        -0.24849
      11 -> 31        -0.16030
      12 -> 29        -0.16081
      12 -> 30         0.13702
      12 -> 31         0.48389

 Excited State  59:      Singlet-A     15.7973 eV   78.48 nm  f=0.1057  <S**2>=0.000
       7 -> 15        -0.21917
       8 -> 16        -0.21197
       9 -> 21        -0.24615
       9 -> 22         0.14259
      10 -> 22        -0.12434
      10 -> 23        -0.10940
      11 -> 28         0.16661
      11 -> 29         0.34002
      11 -> 31         0.13971
      12 -> 29        -0.10400
      12 -> 30         0.16065
      12 -> 31         0.17383

 Excited State  60:      Singlet-A     15.8342 eV   78.30 nm  f=0.0409  <S**2>=0.000
       7 -> 15         0.25592
       8 -> 16         0.15915
       9 -> 21         0.10322
      10 -> 22         0.18274
      10 -> 23        -0.13881
      11 -> 28         0.29329
      11 -> 31         0.26148
      12 -> 29        -0.11950
      12 -> 30        -0.12576
      12 -> 31         0.28451
      12 -> 32        -0.10713

 Excited State  61:      Singlet-A     15.9050 eV   77.95 nm  f=0.0316  <S**2>=0.000
       8 -> 16         0.11506
      10 -> 22         0.21770
      10 -> 23         0.10788
      11 -> 28        -0.27367
      11 -> 29         0.37883
      11 -> 30        -0.10580
      11 -> 31        -0.10297
      11 -> 32         0.11197
      12 -> 30        -0.16865
      12 -> 32        -0.27772

 Excited State  62:      Singlet-A     15.9857 eV   77.56 nm  f=0.0350  <S**2>=0.000
       7 -> 15         0.19948
       8 -> 16        -0.19109
      10 -> 23         0.53299
      12 -> 29         0.11067
      12 -> 31         0.23687
      12 -> 32         0.10020

 Excited State  63:      Singlet-A     16.0101 eV   77.44 nm  f=0.0539  <S**2>=0.000
       7 -> 15         0.44364
       8 -> 16        -0.26391
      10 -> 23        -0.20942
      11 -> 28        -0.19170
      11 -> 29         0.22339
      11 -> 31        -0.11877

 Excited State  64:      Singlet-A     16.0527 eV   77.24 nm  f=0.0398  <S**2>=0.000
       8 -> 16        -0.26117
       9 -> 22        -0.11769
      11 -> 27         0.13038
      11 -> 28         0.10470
      11 -> 29        -0.19700
      11 -> 30        -0.23954
      11 -> 31         0.13548
      11 -> 32         0.36355
      11 -> 34         0.11787
      12 -> 32        -0.20781

 Excited State  65:      Singlet-A     16.1766 eV   76.64 nm  f=0.0146  <S**2>=0.000
       7 -> 15         0.10399
       7 -> 16         0.10829
       8 -> 16         0.22140
       9 -> 22         0.28433
      10 -> 24        -0.14444
      11 -> 30        -0.26140
      11 -> 32         0.31960
      12 -> 32         0.25179

 Excited State  66:      Singlet-A     16.2475 eV   76.31 nm  f=0.0139  <S**2>=0.000
       8 -> 18        -0.10253
       9 -> 22        -0.20570
       9 -> 23         0.18359
      11 -> 29         0.11963
      11 -> 30         0.40157
      11 -> 32         0.39632
      12 -> 32         0.13284

 Excited State  67:      Singlet-A     16.3702 eV   75.74 nm  f=0.0034  <S**2>=0.000
       8 -> 18         0.14919
       9 -> 22         0.44438
      11 -> 30         0.30621
      11 -> 32         0.10171
      12 -> 32        -0.23924
      12 -> 34         0.13813

 Excited State  68:      Singlet-A     16.5077 eV   75.11 nm  f=0.0161  <S**2>=0.000
       7 -> 16         0.45400
       7 -> 18         0.11620
       8 -> 17         0.12287
       9 -> 23         0.28093
      11 -> 28         0.14602
      11 -> 30        -0.16901
      11 -> 31        -0.21713

 Excited State  69:      Singlet-A     16.5529 eV   74.90 nm  f=0.0576  <S**2>=0.000
       6 -> 14        -0.16980
       9 -> 23        -0.11574
      10 -> 24         0.25511
      10 -> 25        -0.25369
      11 -> 28         0.13885
      11 -> 31        -0.19465
      12 -> 33         0.44658

 Excited State  70:      Singlet-A     16.5902 eV   74.73 nm  f=0.0329  <S**2>=0.000
       6 -> 14        -0.14211
       8 -> 18        -0.12127
       9 -> 23         0.18013
      10 -> 24        -0.30670
      10 -> 25        -0.12989
      11 -> 28        -0.20836
      11 -> 31         0.26513
      11 -> 32        -0.12163
      12 -> 33         0.31018
      12 -> 34         0.14566

 Excited State  71:      Singlet-A     16.6599 eV   74.42 nm  f=0.0010  <S**2>=0.000
       7 -> 16        -0.20897
      10 -> 22         0.10629
      11 -> 27        -0.11070
      11 -> 28         0.13106
      11 -> 30        -0.10228
      11 -> 31        -0.19108
      12 -> 34         0.50358
      12 -> 36         0.13992

 Excited State  72:      Singlet-A     16.7206 eV   74.15 nm  f=0.0163  <S**2>=0.000
       7 -> 16        -0.35915
       9 -> 22         0.11793
       9 -> 23         0.47834
      10 -> 24         0.13285
      11 -> 30        -0.11771
      11 -> 31        -0.13439

 Excited State  73:      Singlet-A     16.7489 eV   74.03 nm  f=0.0116  <S**2>=0.000
      10 -> 24         0.45734
      11 -> 28        -0.19563
      11 -> 31         0.24770
      12 -> 32         0.17444
      12 -> 34         0.26948

 Excited State  74:      Singlet-A     16.8905 eV   73.40 nm  f=0.1174  <S**2>=0.000
       6 -> 13        -0.19274
       6 -> 14         0.50803
       9 -> 24         0.24334
      10 -> 25        -0.14804
      11 -> 32        -0.10143
      12 -> 33         0.16305

 Excited State  75:      Singlet-A     16.9466 eV   73.16 nm  f=0.0020  <S**2>=0.000
      10 -> 25         0.56586
      12 -> 33         0.34791

 Excited State  76:      Singlet-A     17.0684 eV   72.64 nm  f=0.0900  <S**2>=0.000
       6 -> 13         0.13180
       6 -> 14        -0.13928
       8 -> 17         0.26902
       8 -> 19         0.18665
       8 -> 21        -0.11920
       9 -> 23        -0.12620
       9 -> 24         0.48232
      12 -> 35        -0.12252

 Excited State  77:      Singlet-A     17.1197 eV   72.42 nm  f=0.1241  <S**2>=0.000
       6 -> 14         0.14413
       7 -> 16        -0.10892
       8 -> 17         0.46399
       8 -> 18        -0.15530
       9 -> 23        -0.17495
       9 -> 24        -0.28599
      11 -> 34         0.12187

 Excited State  78:      Singlet-A     17.2102 eV   72.04 nm  f=0.0629  <S**2>=0.000
       6 -> 13        -0.13063
       6 -> 14        -0.13781
       8 -> 18         0.24192
      10 -> 26         0.20025
      11 -> 33         0.36564
      11 -> 34         0.26060
      11 -> 36         0.15616
      12 -> 35         0.25397

 Excited State  79:      Singlet-A     17.2470 eV   71.89 nm  f=0.0486  <S**2>=0.000
       6 -> 13         0.13394
       7 -> 16        -0.10026
       8 -> 17         0.23072
       8 -> 18         0.24116
      10 -> 26         0.22960
      11 -> 33        -0.27961
      11 -> 34        -0.17840

 The electronic state is 1-A.
 Alpha  occ. eigenvalues --  -14.47282 -14.40996 -10.37096  -1.04399  -0.94547
 Alpha  occ. eigenvalues --   -0.71529  -0.63488  -0.60443  -0.49991  -0.47078
 Alpha  occ. eigenvalues --   -0.35120  -0.33356
 Alpha virt. eigenvalues --    0.08665   0.09650   0.11968   0.13909   0.18719
 Alpha virt. eigenvalues --    0.20331   0.22939   0.23479   0.25509   0.27416
 Alpha virt. eigenvalues --    0.28350   0.30856   0.32911   0.34270   0.36775

 Mulliken charges:
               1
     1  N    0.041133
     2  C    0.596629
     3  N   -0.183453
     4  H   -0.059164
     5  H   -0.085700
     6  H   -0.283813
     7  H   -0.025632
 Sum of Mulliken charges =  -0.00000

 Dipole moment (field-independent basis, Debye):
    X=              3.4919    Y=             -0.7418    Z=              0.5733  Tot=              3.6156
 Quadrupole moment (field-independent basis, Debye-Ang):
   XX=            -20.6355   YY=            -14.5992   ZZ=            -20.6440
   XY=              1.3260   XZ=              1.1664   YZ=             -0.1590

 Normal termination of Gaussian 16 at Mon Mar 21 15:17:50 2022.
