 Gaussian 16, Revision C.01,
 Gaussian 16:  EM64L-G16RevC.01  3-Jul-2019

 ----------------------------------------------------------------------
 #P TD(Nstates=10000) wB97XD/Gen SCF(maxcycles=100) Int(Grid=ultrafine)
 ----------------------------------------------------------------------

 ---------------------
 xGDB7_00001_tier4.com
 ---------------------
 Symbolic Z-matrix:
 Charge =  0 Multiplicity = 1

                         Standard orientation:
 ---------------------------------------------------------------------
 Center     Atomic      Atomic             Coordinates (Angstroms)
 Number     Number       Type             X           Y           Z
 ---------------------------------------------------------------------
      1          6           0       -1.240791   -0.237624   -0.027525
      2          6           0        0.048946    0.559205    0.053709
      3          7           0        1.202342   -0.317606   -0.116703
      4          1           0       -2.109817    0.415828    0.064703
      5          1           0       -1.292929   -0.976209    0.776809
      6          1           0       -1.300329   -0.769884   -0.977746
      7          1           0        0.066306    1.122818    0.997967
      8          1           0        0.069957    1.296574   -0.752592
      9          1           0        1.236408   -1.003082    0.627159
     10          1           0        2.065080    0.207710   -0.076483
 ---------------------------------------------------------------------

 SCF Done:  E(RwB97XD) =  -135.045848241     A.U. after   15 cycles

 Excitation energies and oscillator strengths:

 Excited State   1:      Singlet-A      6.5898 eV  188.15 nm  f=0.0134  <S**2>=0.000
      13 -> 14         0.63161
      13 -> 15        -0.23766
      13 -> 16         0.19068
 This state for optimization and/or second-order correction.
 Total Energy, E(TD-HF/TD-DFT) =  -134.803677000
 Copying the excited state density for this state as the 1-particle RhoCI density.

 Excited State   2:      Singlet-A      7.8697 eV  157.55 nm  f=0.0036  <S**2>=0.000
      13 -> 14         0.14361
      13 -> 15         0.55512
      13 -> 16         0.23912
      13 -> 17        -0.24644
      13 -> 18         0.16842

 Excited State   3:      Singlet-A      7.8862 eV  157.22 nm  f=0.0382  <S**2>=0.000
      13 -> 14        -0.24885
      13 -> 15        -0.17176
      13 -> 16         0.61524

 Excited State   4:      Singlet-A      8.6443 eV  143.43 nm  f=0.0881  <S**2>=0.000
      13 -> 15         0.23151
      13 -> 17         0.63733
      13 -> 22         0.10153

 Excited State   5:      Singlet-A      9.1432 eV  135.60 nm  f=0.0370  <S**2>=0.000
      13 -> 15        -0.18622
      13 -> 18         0.62448
      13 -> 20         0.14581
      13 -> 23        -0.12896

 Excited State   6:      Singlet-A      9.5194 eV  130.24 nm  f=0.0045  <S**2>=0.000
      13 -> 19         0.57009
      13 -> 20        -0.29268
      13 -> 21        -0.19911

 Excited State   7:      Singlet-A      9.6696 eV  128.22 nm  f=0.0027  <S**2>=0.000
      12 -> 14         0.67974

 Excited State   8:      Singlet-A      9.9835 eV  124.19 nm  f=0.0017  <S**2>=0.000
      13 -> 16        -0.10180
      13 -> 18        -0.13602
      13 -> 19         0.25847
      13 -> 20         0.52546
      13 -> 24        -0.23907

 Excited State   9:      Singlet-A     10.1299 eV  122.39 nm  f=0.0110  <S**2>=0.000
      11 -> 14         0.20216
      13 -> 19         0.20003
      13 -> 21         0.60283
      13 -> 25        -0.11895
      13 -> 26        -0.10228

 Excited State  10:      Singlet-A     10.2287 eV  121.21 nm  f=0.0144  <S**2>=0.000
      10 -> 14         0.10819
      11 -> 14         0.61501
      12 -> 15        -0.18537
      13 -> 21        -0.17956

 Excited State  11:      Singlet-A     10.3351 eV  119.96 nm  f=0.0831  <S**2>=0.000
      10 -> 14         0.65215
      10 -> 15         0.20737

 Excited State  12:      Singlet-A     10.5360 eV  117.68 nm  f=0.0877  <S**2>=0.000
       9 -> 14        -0.15942
      11 -> 14         0.19267
      12 -> 15         0.63788

 Excited State  13:      Singlet-A     10.7311 eV  115.54 nm  f=0.0061  <S**2>=0.000
      12 -> 16         0.18157
      13 -> 18         0.15465
      13 -> 20        -0.18653
      13 -> 22        -0.24984
      13 -> 23         0.49692
      13 -> 24        -0.24742

 Excited State  14:      Singlet-A     10.8686 eV  114.08 nm  f=0.0297  <S**2>=0.000
      10 -> 15        -0.10121
      12 -> 16         0.25529
      13 -> 22         0.54834
      13 -> 23         0.16350
      13 -> 25        -0.16112
      13 -> 26        -0.12696

 Excited State  15:      Singlet-A     10.9288 eV  113.45 nm  f=0.1311  <S**2>=0.000
      11 -> 16         0.11221
      12 -> 16         0.59074
      12 -> 17        -0.10411
      13 -> 22        -0.14631
      13 -> 23        -0.25758

 Excited State  16:      Singlet-A     11.0538 eV  112.16 nm  f=0.1162  <S**2>=0.000
      11 -> 15         0.60000
      13 -> 25        -0.26407

 Excited State  17:      Singlet-A     11.1599 eV  111.10 nm  f=0.0041  <S**2>=0.000
      10 -> 15         0.16058
      13 -> 20         0.19071
      13 -> 23         0.22974
      13 -> 24         0.53605
      13 -> 25        -0.14452
      13 -> 27         0.14866

 Excited State  18:      Singlet-A     11.2371 eV  110.33 nm  f=0.0888  <S**2>=0.000
      10 -> 14        -0.13093
      10 -> 15         0.45033
      11 -> 15        -0.20916
      11 -> 16        -0.10115
      13 -> 23        -0.12619
      13 -> 24        -0.20371
      13 -> 25        -0.34053

 Excited State  19:      Singlet-A     11.2926 eV  109.79 nm  f=0.0312  <S**2>=0.000
      10 -> 14        -0.12325
      10 -> 15         0.39012
      11 -> 15         0.22405
      13 -> 22         0.14915
      13 -> 23         0.11081
      13 -> 25         0.41487

 Excited State  20:      Singlet-A     11.4582 eV  108.21 nm  f=0.0031  <S**2>=0.000
      11 -> 16         0.49478
      12 -> 17         0.43889

 Excited State  21:      Singlet-A     11.5338 eV  107.50 nm  f=0.0213  <S**2>=0.000
      10 -> 16        -0.20520
      11 -> 16        -0.41328
      11 -> 17         0.14606
      12 -> 17         0.44870
      12 -> 18         0.13118

 Excited State  22:      Singlet-A     11.6589 eV  106.34 nm  f=0.0268  <S**2>=0.000
      10 -> 16         0.61838
      10 -> 17        -0.11650
      11 -> 17         0.10989
      12 -> 17         0.14154

 Excited State  23:      Singlet-A     11.8138 eV  104.95 nm  f=0.0392  <S**2>=0.000
       9 -> 15         0.12014
      12 -> 17        -0.14652
      12 -> 18         0.62943
      12 -> 19        -0.11966

 Excited State  24:      Singlet-A     11.9631 eV  103.64 nm  f=0.0288  <S**2>=0.000
       9 -> 14         0.32721
      10 -> 17        -0.26450
      11 -> 17        -0.27435
      13 -> 26         0.31631
      13 -> 27        -0.27332

 Excited State  25:      Singlet-A     12.0039 eV  103.29 nm  f=0.0934  <S**2>=0.000
       9 -> 14         0.20595
      10 -> 17        -0.12130
      11 -> 17         0.57427
      11 -> 18         0.14707
      13 -> 26         0.10344

 Excited State  26:      Singlet-A     12.0302 eV  103.06 nm  f=0.0136  <S**2>=0.000
       9 -> 14         0.29094
      10 -> 17        -0.31133
      13 -> 26        -0.25207
      13 -> 27         0.43187

 Excited State  27:      Singlet-A     12.1628 eV  101.94 nm  f=0.0365  <S**2>=0.000
       9 -> 14         0.34379
      10 -> 17         0.31179
      11 -> 18        -0.17420
      12 -> 19        -0.12780
      13 -> 26        -0.30817
      13 -> 27        -0.22406

 Excited State  28:      Singlet-A     12.2132 eV  101.52 nm  f=0.0854  <S**2>=0.000
       9 -> 14         0.20423
      10 -> 16         0.12215
      10 -> 17         0.33870
      12 -> 19         0.16897
      13 -> 22         0.12646
      13 -> 26         0.34118
      13 -> 27         0.30444

 Excited State  29:      Singlet-A     12.3264 eV  100.58 nm  f=0.0195  <S**2>=0.000
       9 -> 14         0.12060
      10 -> 17         0.13242
      11 -> 17        -0.12556
      11 -> 18         0.51156
      11 -> 19        -0.11873
      12 -> 19         0.19606
      13 -> 26        -0.16934
      13 -> 28         0.19610
      13 -> 29        -0.12281

 Excited State  30:      Singlet-A     12.3559 eV  100.34 nm  f=0.0059  <S**2>=0.000
       9 -> 15         0.21503
      10 -> 18        -0.33101
      11 -> 18        -0.15156
      12 -> 19         0.47041
      13 -> 26        -0.12033
      13 -> 27        -0.10233

 Excited State  31:      Singlet-A     12.4218 eV   99.81 nm  f=0.0768  <S**2>=0.000
       9 -> 15         0.11008
       9 -> 16         0.12846
      10 -> 17         0.11134
      10 -> 18        -0.35784
      11 -> 19        -0.12173
      12 -> 19        -0.26291
      12 -> 20         0.36662
      13 -> 28         0.19362

 Excited State  32:      Singlet-A     12.5567 eV   98.74 nm  f=0.1305  <S**2>=0.000
      10 -> 18         0.28879
      11 -> 18        -0.24231
      13 -> 25        -0.11143
      13 -> 28         0.49282

 Excited State  33:      Singlet-A     12.6031 eV   98.38 nm  f=0.0830  <S**2>=0.000
       9 -> 16         0.20001
      10 -> 18         0.27040
      12 -> 19         0.16966
      12 -> 20         0.41388
      12 -> 21         0.26897
      13 -> 28        -0.24337

 Excited State  34:      Singlet-A     12.7084 eV   97.56 nm  f=0.0315  <S**2>=0.000
      10 -> 18        -0.14097
      11 -> 19         0.31282
      12 -> 21         0.50865
      12 -> 22        -0.12148
      13 -> 28         0.15497

 Excited State  35:      Singlet-A     12.8101 eV   96.79 nm  f=0.0711  <S**2>=0.000
       9 -> 16         0.13280
      11 -> 18         0.21844
      11 -> 19         0.46157
      11 -> 20        -0.22635
      12 -> 21        -0.23183
      13 -> 29         0.25005

 Excited State  36:      Singlet-A     12.9090 eV   96.04 nm  f=0.0381  <S**2>=0.000
       9 -> 15        -0.12184
       9 -> 16         0.11419
      10 -> 19         0.50998
      11 -> 21        -0.11329
      13 -> 29        -0.31569

 Excited State  37:      Singlet-A     12.9498 eV   95.74 nm  f=0.0314  <S**2>=0.000
       8 -> 14         0.19663
      10 -> 19         0.26841
      10 -> 20        -0.13981
      11 -> 19        -0.19243
      11 -> 21         0.10495
      13 -> 28         0.10529
      13 -> 29         0.45497
      13 -> 31         0.10695

 Excited State  38:      Singlet-A     13.0542 eV   94.98 nm  f=0.1216  <S**2>=0.000
       7 -> 14         0.14293
       9 -> 15         0.45834
       9 -> 16        -0.19697
      10 -> 19         0.17436
      11 -> 20        -0.26607
      12 -> 19        -0.10650

 Excited State  39:      Singlet-A     13.1113 eV   94.56 nm  f=0.0323  <S**2>=0.000
       8 -> 14        -0.24305
       9 -> 15         0.13637
      10 -> 19         0.14554
      10 -> 20        -0.11840
      10 -> 21         0.15832
      11 -> 19         0.17801
      11 -> 20         0.41764
      11 -> 21         0.21943
      12 -> 22         0.11019

 Excited State  40:      Singlet-A     13.1798 eV   94.07 nm  f=0.1029  <S**2>=0.000
       9 -> 15         0.12432
       9 -> 16         0.38287
      10 -> 19        -0.13911
      10 -> 20        -0.38051
      12 -> 20        -0.23854
      12 -> 22         0.14808

 Excited State  41:      Singlet-A     13.2477 eV   93.59 nm  f=0.1563  <S**2>=0.000
       8 -> 14         0.49668
       9 -> 15         0.11303
      11 -> 19         0.10766
      11 -> 21         0.28560
      12 -> 22         0.13700
      13 -> 29        -0.19428

 Excited State  42:      Singlet-A     13.2592 eV   93.51 nm  f=0.0887  <S**2>=0.000
       8 -> 14        -0.12614
       9 -> 15        -0.11090
       9 -> 16         0.11906
      10 -> 20         0.14094
      10 -> 21         0.42775
      11 -> 19        -0.14910
      11 -> 20        -0.24498
      11 -> 21         0.31320

 Excited State  43:      Singlet-A     13.2888 eV   93.30 nm  f=0.0288  <S**2>=0.000
       8 -> 14         0.20785
      10 -> 19        -0.10672
      10 -> 21         0.40834
      11 -> 20         0.20278
      11 -> 21        -0.31562
      11 -> 22         0.12004
      12 -> 20        -0.11101
      13 -> 29         0.11078

 Excited State  44:      Singlet-A     13.3889 eV   92.60 nm  f=0.0219  <S**2>=0.000
       9 -> 16        -0.18663
       9 -> 17         0.34813
      11 -> 21        -0.16760
      12 -> 22         0.46478
      12 -> 23         0.11638

 Excited State  45:      Singlet-A     13.4389 eV   92.26 nm  f=0.0825  <S**2>=0.000
       9 -> 15         0.22971
       9 -> 16         0.29915
       9 -> 17         0.12250
      10 -> 20         0.39180
      10 -> 21        -0.11210
      11 -> 20         0.12345
      12 -> 20        -0.14415
      12 -> 21         0.11419
      12 -> 23         0.22582

 Excited State  46:      Singlet-A     13.5812 eV   91.29 nm  f=0.0318  <S**2>=0.000
       7 -> 14        -0.14884
       7 -> 15         0.12153
       9 -> 16        -0.12454
       9 -> 17         0.21045
       9 -> 18        -0.13126
      10 -> 20        -0.15507
      11 -> 22        -0.15714
      12 -> 20         0.13984
      12 -> 22        -0.23788
      12 -> 23         0.35446
      12 -> 24        -0.18036

 Excited State  47:      Singlet-A     13.7107 eV   90.43 nm  f=0.0013  <S**2>=0.000
       7 -> 14         0.21535
       7 -> 16         0.10678
       9 -> 15        -0.11609
       9 -> 19        -0.11561
      10 -> 20        -0.12158
      10 -> 23        -0.10922
      12 -> 23         0.21233
      12 -> 24         0.39319
      12 -> 25         0.13594
      13 -> 30         0.27076
      13 -> 31        -0.11192

 Excited State  48:      Singlet-A     13.7988 eV   89.85 nm  f=0.0391  <S**2>=0.000
       7 -> 14         0.26242
      10 -> 22         0.20503
      11 -> 22         0.12866
      12 -> 23         0.19277
      13 -> 30        -0.13107
      13 -> 31         0.45168

 Excited State  49:      Singlet-A     13.8568 eV   89.48 nm  f=0.0902  <S**2>=0.000
       7 -> 14        -0.17476
       8 -> 15         0.10163
      10 -> 22        -0.25510
      11 -> 21        -0.15418
      11 -> 22        -0.19858
      12 -> 22        -0.14342
      12 -> 23        -0.12535
      12 -> 24         0.29651
      13 -> 31         0.33424

 Excited State  50:      Singlet-A     13.8726 eV   89.37 nm  f=0.0658  <S**2>=0.000
       7 -> 14         0.36595
       7 -> 15        -0.12561
       8 -> 17         0.10241
       9 -> 16         0.10964
       9 -> 17         0.17720
       9 -> 18         0.10027
      10 -> 21        -0.10690
      10 -> 22        -0.31997
      10 -> 24         0.10231
      12 -> 22        -0.10844
      13 -> 30        -0.19635
      13 -> 31        -0.11285

 Excited State  51:      Singlet-A     13.9347 eV   88.98 nm  f=0.0161  <S**2>=0.000
       8 -> 16        -0.10138
      10 -> 22        -0.15193
      11 -> 22         0.20380
      12 -> 24        -0.16463
      13 -> 30         0.49536
      13 -> 31         0.18121

 Excited State  52:      Singlet-A     13.9824 eV   88.67 nm  f=0.0608  <S**2>=0.000
       7 -> 14        -0.16804
       8 -> 16         0.10340
       9 -> 17         0.12207
       9 -> 18        -0.19251
      10 -> 23        -0.23748
      11 -> 22         0.40613
      11 -> 23        -0.21501
      12 -> 23        -0.10053
      12 -> 24         0.12475
      13 -> 30        -0.13878

 Excited State  53:      Singlet-A     14.0596 eV   88.18 nm  f=0.0525  <S**2>=0.000
       8 -> 15        -0.12720
       8 -> 16         0.17718
       9 -> 17         0.26373
       9 -> 18         0.22787
      10 -> 22         0.12441
      10 -> 23        -0.11572
      11 -> 23         0.19762
      11 -> 24         0.22922
      11 -> 25         0.11200
      12 -> 22        -0.12320
      12 -> 23        -0.19239
      12 -> 25         0.17416
      12 -> 26        -0.10301
      13 -> 30         0.13325

 Excited State  54:      Singlet-A     14.1017 eV   87.92 nm  f=0.0742  <S**2>=0.000
       7 -> 14        -0.15103
       8 -> 15         0.25603
       8 -> 16        -0.12948
       9 -> 18         0.24393
       9 -> 20         0.10756
      10 -> 23         0.15321
      10 -> 24         0.17215
      11 -> 22         0.26054
      12 -> 23         0.20532
      12 -> 25         0.28356

 Excited State  55:      Singlet-A     14.2035 eV   87.29 nm  f=0.0545  <S**2>=0.000
       8 -> 15         0.35048
       9 -> 17         0.26230
       9 -> 18        -0.13543
      10 -> 22         0.23983
      11 -> 23         0.14094
      11 -> 24        -0.18285
      11 -> 25        -0.12311
      12 -> 22        -0.10369
      12 -> 23        -0.12138
      12 -> 24         0.10132
      12 -> 25        -0.13596

 Excited State  56:      Singlet-A     14.2681 eV   86.90 nm  f=0.0390  <S**2>=0.000
       8 -> 16         0.39046
       9 -> 17        -0.12510
       9 -> 18        -0.21636
      10 -> 23         0.11211
      10 -> 24         0.19936
      11 -> 23         0.14775
      12 -> 25         0.27940
      12 -> 27        -0.10302

 Excited State  57:      Singlet-A     14.2813 eV   86.82 nm  f=0.0208  <S**2>=0.000
       8 -> 15         0.36560
       8 -> 16         0.16554
       9 -> 17        -0.20658
       9 -> 19        -0.11861
      10 -> 21        -0.10458
      10 -> 22        -0.14238
      10 -> 23        -0.32080
      11 -> 23         0.11519
      12 -> 23         0.11083

 Excited State  58:      Singlet-A     14.3505 eV   86.40 nm  f=0.0077  <S**2>=0.000
       8 -> 16        -0.23913
       9 -> 18        -0.17535
      10 -> 24        -0.30241
      11 -> 23         0.14688
      11 -> 24        -0.21734
      12 -> 24        -0.12138
      12 -> 25         0.34663

 Excited State  59:      Singlet-A     14.4280 eV   85.93 nm  f=0.0304  <S**2>=0.000
       8 -> 16        -0.17619
       9 -> 17        -0.10436
       9 -> 19         0.17940
      11 -> 21         0.11583
      11 -> 22         0.15592
      11 -> 23         0.40223
      11 -> 24         0.21943
      12 -> 24         0.17267
      12 -> 25        -0.15256
      12 -> 26         0.14176
      13 -> 33        -0.10639

 Excited State  60:      Singlet-A     14.4758 eV   85.65 nm  f=0.0497  <S**2>=0.000
       8 -> 15         0.16053
       8 -> 16        -0.12574
       9 -> 18        -0.26658
       9 -> 19         0.18469
      11 -> 22        -0.11256
      11 -> 23        -0.16602
      11 -> 24         0.42624
      12 -> 25         0.15166

 Excited State  61:      Singlet-A     14.5403 eV   85.27 nm  f=0.0312  <S**2>=0.000
       8 -> 16        -0.22186
       8 -> 17         0.12181
       9 -> 18        -0.17630
       9 -> 19        -0.14837
      10 -> 20        -0.10600
      10 -> 23        -0.13039
      10 -> 24         0.36336
      10 -> 25         0.10856
      11 -> 23         0.11700
      12 -> 23        -0.10105
      12 -> 26        -0.20562
      13 -> 32        -0.19284

 Excited State  62:      Singlet-A     14.6098 eV   84.86 nm  f=0.0258  <S**2>=0.000
       7 -> 15         0.10110
       7 -> 16         0.11900
       8 -> 16        -0.10757
       8 -> 17         0.10121
      10 -> 23        -0.19315
      10 -> 24         0.15917
      11 -> 25        -0.18342
      12 -> 24        -0.15139
      12 -> 26         0.28038
      12 -> 27        -0.15291
      13 -> 32         0.33859
      13 -> 33        -0.14870

 Excited State  63:      Singlet-A     14.6686 eV   84.52 nm  f=0.0057  <S**2>=0.000
      11 -> 25         0.22127
      12 -> 26        -0.21909
      12 -> 27         0.15139
      13 -> 32         0.51971
      13 -> 34        -0.12561

 Excited State  64:      Singlet-A     14.7783 eV   83.90 nm  f=0.0673  <S**2>=0.000
       9 -> 21         0.12089
      12 -> 26         0.10042
      13 -> 32         0.13819
      13 -> 33         0.48736
      13 -> 34         0.32685
      13 -> 37        -0.10096

 Excited State  65:      Singlet-A     14.8131 eV   83.70 nm  f=0.0263  <S**2>=0.000
       8 -> 17         0.23011
       9 -> 18         0.11338
       9 -> 19         0.42487
      10 -> 22         0.13476
      10 -> 23        -0.20678
      11 -> 24        -0.11669
      11 -> 25         0.19966
      13 -> 33         0.11637
      13 -> 34        -0.10696

 Excited State  66:      Singlet-A     14.9039 eV   83.19 nm  f=0.1327  <S**2>=0.000
       7 -> 14         0.10630
       7 -> 15         0.12339
       7 -> 16        -0.20295
       8 -> 17         0.28300
       9 -> 19         0.11180
       9 -> 20         0.17269
      10 -> 25        -0.23576
      11 -> 25        -0.28221
      12 -> 26        -0.17059
      12 -> 27         0.18647
      13 -> 34         0.14810

 Excited State  67:      Singlet-A     14.9244 eV   83.08 nm  f=0.0416  <S**2>=0.000
       7 -> 15         0.21772
       8 -> 17        -0.13029
       9 -> 19         0.12667
       9 -> 21         0.31651
       9 -> 22        -0.13527
      10 -> 25         0.14933
      10 -> 27        -0.14842
      12 -> 26         0.15564
      12 -> 27         0.26896
      13 -> 33        -0.21264

 Excited State  68:      Singlet-A     14.9770 eV   82.78 nm  f=0.0107  <S**2>=0.000
       7 -> 14         0.13858
       7 -> 15         0.42236
       7 -> 16        -0.13082
       7 -> 17        -0.11654
       7 -> 18         0.12835
       8 -> 17        -0.22460
       8 -> 18        -0.12522
       9 -> 20        -0.13003
       9 -> 21        -0.14511
      10 -> 22        -0.11535
      10 -> 25        -0.10605
      12 -> 26        -0.12418
      12 -> 27        -0.14268
      12 -> 28        -0.10545

 Excited State  69:      Singlet-A     14.9996 eV   82.66 nm  f=0.0315  <S**2>=0.000
       8 -> 17         0.15213

 The electronic state is 1-A.
 Alpha  occ. eigenvalues --  -14.42481 -10.31723 -10.28360  -0.97374  -0.82212
 Alpha  occ. eigenvalues --   -0.69220  -0.57929  -0.55339  -0.51204  -0.45192
 Alpha  occ. eigenvalues --   -0.44781  -0.42813  -0.32279
 Alpha virt. eigenvalues --    0.09259   0.11938   0.13448   0.16058   0.17759
 Alpha virt. eigenvalues --    0.19668   0.20566   0.21257   0.23295   0.24548
 Alpha virt. eigenvalues --    0.24866   0.27040   0.28216   0.28592   0.31720

 Mulliken charges:
               1
     1  C    0.273162
     2  C    0.110228
     3  N   -0.210545
     4  H    0.010298
     5  H   -0.010615
     6  H    0.030880
     7  H   -0.097327
     8  H   -0.126043
     9  H    0.040427
    10  H   -0.020464
 Sum of Mulliken charges =  -0.00000

 Dipole moment (field-independent basis, Debye):
    X=              0.1328    Y=              0.6188    Z=              1.1321  Tot=              1.2970
 Quadrupole moment (field-independent basis, Debye-Ang):
   XX=            -19.4631   YY=            -20.7326   ZZ=            -21.4397
   XY=              0.7487   XZ=              1.5902   YZ=             -1.7084

 Normal termination of Gaussian 16 at Mon Mar 21 15:21:51 2022.
