 Gaussian 16, Revision C.01,
 Gaussian 16:  EM64L-G16RevC.01  3-Jul-2019

 ----------------------------------------------------------------------
 #P TD(Nstates=10000) wB97XD/Gen SCF(maxcycles=100) Int(Grid=ultrafine)
 ----------------------------------------------------------------------

 ---------------------
 xGDB7_00001_tier4.com
 ---------------------
 Symbolic Z-matrix:
 Charge =  0 Multiplicity = 1

                         Standard orientation:
 ---------------------------------------------------------------------
 Center     Atomic      Atomic             Coordinates (Angstroms)
 Number     Number       Type             X           Y           Z
 ---------------------------------------------------------------------
      1          6           0        0.000000    0.000000   -0.524273
      2          8           0        0.000000    0.000000    0.670793
      3          1           0        0.000000    0.939221   -1.110351
      4          1           0       -0.000000   -0.939221   -1.110351
 ---------------------------------------------------------------------

 SCF Done:  E(RwB97XD) =  -114.385355938     A.U. after   12 cycles

 Excitation energies and oscillator strengths:

 Excited State   1:      Singlet-A2     4.0731 eV  304.40 nm  f=0.0000  <S**2>=0.000
       8 ->  9         0.70497
 This state for optimization and/or second-order correction.
 Total Energy, E(TD-HF/TD-DFT) =  -114.235673983
 Copying the excited state density for this state as the 1-particle RhoCI density.

 Excited State   2:      Singlet-B2     7.7087 eV  160.84 nm  f=0.0290  <S**2>=0.000
       8 -> 10         0.69692

 Excited State   3:      Singlet-B2     9.2172 eV  134.51 nm  f=0.0698  <S**2>=0.000
       8 -> 12         0.67665
       8 -> 14        -0.17485

 Excited State   4:      Singlet-A1     9.2523 eV  134.00 nm  f=0.1152  <S**2>=0.000
       8 -> 11         0.70253

 Excited State   5:      Singlet-B1     9.3046 eV  133.25 nm  f=0.0002  <S**2>=0.000
       6 ->  9         0.70299

 Excited State   6:      Singlet-A2     9.8030 eV  126.48 nm  f=0.0000  <S**2>=0.000
       8 -> 13         0.70381

 Excited State   7:      Singlet-A1     9.8078 eV  126.41 nm  f=0.1067  <S**2>=0.000
       7 ->  9         0.64991
       8 -> 16        -0.24298

 Excited State   8:      Singlet-A2    10.3836 eV  119.40 nm  f=0.0000  <S**2>=0.000
       5 ->  9         0.70318

 Excited State   9:      Singlet-B2    10.4818 eV  118.29 nm  f=0.0338  <S**2>=0.000
       8 -> 12         0.17931
       8 -> 14         0.67441

 Excited State  10:      Singlet-B2    11.1314 eV  111.38 nm  f=0.0298  <S**2>=0.000
       8 -> 15         0.69945

 Excited State  11:      Singlet-B1    11.4505 eV  108.28 nm  f=0.0545  <S**2>=0.000
       7 -> 10         0.69335

 Excited State  12:      Singlet-A1    12.0047 eV  103.28 nm  f=0.2266  <S**2>=0.000
       6 -> 10        -0.13148
       7 ->  9         0.21930
       7 -> 13        -0.12276
       8 -> 16         0.63678

 Excited State  13:      Singlet-B1    12.2453 eV  101.25 nm  f=0.0146  <S**2>=0.000
       8 -> 17         0.69593

 Excited State  14:      Singlet-A2    12.9368 eV   95.84 nm  f=0.0000  <S**2>=0.000
       7 -> 11         0.69612

 Excited State  15:      Singlet-B1    12.9964 eV   95.40 nm  f=0.0715  <S**2>=0.000
       7 -> 12         0.67611
       7 -> 14        -0.10028

 Excited State  16:      Singlet-A1    13.0926 eV   94.70 nm  f=0.0280  <S**2>=0.000
       6 -> 10         0.66362
       7 -> 13        -0.18598

 Excited State  17:      Singlet-A2    13.1650 eV   94.18 nm  f=0.0000  <S**2>=0.000
       8 -> 18         0.69159

 Excited State  18:      Singlet-A1    13.6934 eV   90.54 nm  f=0.0000  <S**2>=0.000
       6 -> 10         0.15684
       7 -> 13         0.65768
       8 -> 16         0.13682

 Excited State  19:      Singlet-B2    13.8848 eV   89.29 nm  f=0.1824  <S**2>=0.000
       5 -> 10         0.69174

 Excited State  20:      Singlet-B1    14.1844 eV   87.41 nm  f=0.0029  <S**2>=0.000
       4 ->  9        -0.10123
       7 -> 14         0.64497
       7 -> 15        -0.23501

 Excited State  21:      Singlet-A1    14.2249 eV   87.16 nm  f=0.2172  <S**2>=0.000
       6 -> 12         0.69440

 Excited State  22:      Singlet-B2    14.3512 eV   86.39 nm  f=0.0391  <S**2>=0.000
       6 -> 11         0.69673

 Excited State  23:      Singlet-B1    14.5075 eV   85.46 nm  f=0.0091  <S**2>=0.000
       4 ->  9         0.31021
       7 -> 12         0.14560
       7 -> 14         0.24143
       7 -> 15         0.56388

 Excited State  24:      Singlet-B2    14.7415 eV   84.11 nm  f=0.0040  <S**2>=0.000
       5 -> 12        -0.13145
       8 -> 19         0.67463

 Excited State  25:      Singlet-B1    14.8130 eV   83.70 nm  f=0.0165  <S**2>=0.000
       6 -> 13         0.69379

 Excited State  26:      Singlet-A2    14.9389 eV   82.99 nm  f=0.0000  <S**2>=0.000
       7 -> 16         0.69925

 Excited State  27:      Singlet-A1    15.2164 eV   81.48 nm  f=0.2040  <S**2>=0.000
       8 -> 20         0.68435

 Excited State  28:      Singlet-B1    15.5082 eV   79.95 nm  f=0.2742  <S**2>=0.000
       4 ->  9         0.59273
       5 -> 17        -0.10959
       6 -> 13         0.11542
       7 -> 15        -0.32478

 Excited State  29:      Singlet-B2    15.5562 eV   79.70 nm  f=0.0845  <S**2>=0.000
       5 -> 12        -0.35321
       5 -> 14         0.10510
       5 -> 15         0.12151
       8 -> 19        -0.16513
       8 -> 21         0.54448

 Excited State  30:      Singlet-A1    15.6345 eV   79.30 nm  f=0.0316  <S**2>=0.000
       5 -> 11         0.25621
       6 -> 14         0.63042

 Excited State  31:      Singlet-B2    15.7071 eV   78.94 nm  f=0.0049  <S**2>=0.000
       5 -> 12         0.52220
       5 -> 14        -0.15650
       5 -> 15        -0.10985
       7 -> 17         0.12068
       8 -> 21         0.37468
       8 -> 22         0.13577

 Excited State  32:      Singlet-A1    15.9439 eV   77.76 nm  f=0.0017  <S**2>=0.000
       5 -> 11         0.56165
       6 -> 14        -0.21889
       6 -> 15         0.33521

 Excited State  33:      Singlet-B2    15.9828 eV   77.57 nm  f=0.0481  <S**2>=0.000
       5 -> 14         0.14778
       5 -> 15        -0.12297
       7 -> 17         0.64624
       8 -> 21        -0.13330

 Excited State  34:      Singlet-A1    16.1109 eV   76.96 nm  f=0.0068  <S**2>=0.000
       5 -> 11        -0.26685
       6 -> 14         0.12756
       6 -> 15         0.59674
       8 -> 23         0.16528

 Excited State  35:      Singlet-A2    16.2796 eV   76.16 nm  f=0.0000  <S**2>=0.000
       5 -> 13         0.69215

 Excited State  36:      Singlet-B2    16.3457 eV   75.85 nm  f=0.0028  <S**2>=0.000
       6 -> 16         0.67360

 Excited State  37:      Singlet-B2    16.6449 eV   74.49 nm  f=0.1710  <S**2>=0.000
       5 -> 14         0.17671
       7 -> 17        -0.15686
       8 -> 22         0.63303

 Excited State  38:      Singlet-A1    16.8042 eV   73.78 nm  f=0.0850  <S**2>=0.000
       5 -> 11         0.12321
       6 -> 15        -0.10522
       7 -> 18        -0.12391
       8 -> 23         0.64586

 Excited State  39:      Singlet-B2    17.0420 eV   72.75 nm  f=0.2313  <S**2>=0.000
       5 -> 12         0.17952
       5 -> 14         0.56681
       5 -> 15        -0.15019
       7 -> 17        -0.11157
       8 -> 21         0.10221
       8 -> 22        -0.23062
       8 -> 26        -0.16471

 Excited State  40:      Singlet-B1    17.1430 eV   72.32 nm  f=0.1837  <S**2>=0.000
       8 -> 24         0.68698

 Excited State  41:      Singlet-A1    17.1635 eV   72.24 nm  f=0.0181  <S**2>=0.000
       5 -> 16         0.26434
       7 -> 18         0.61096
       8 -> 23         0.15479

 Excited State  42:      Singlet-A2    17.5266 eV   70.74 nm  f=0.0000  <S**2>=0.000
       6 -> 17         0.69692

 Excited State  43:      Singlet-B2    17.5651 eV   70.59 nm  f=0.0549  <S**2>=0.000
       5 -> 12        -0.11786
       5 -> 15        -0.42902
       8 -> 26         0.51929

 Excited State  44:      Singlet-A1    17.6615 eV   70.20 nm  f=0.0000  <S**2>=0.000
       4 -> 10         0.55272
       5 -> 16         0.40790
       7 -> 18        -0.10382

 Excited State  45:      Singlet-B2    17.7194 eV   69.97 nm  f=0.0241  <S**2>=0.000
       5 -> 12         0.15559
       5 -> 14         0.24349
       5 -> 15         0.47105
       8 -> 26         0.41072

 Excited State  46:      Singlet-A2    17.7194 eV   69.97 nm  f=0.0000  <S**2>=0.000
       8 -> 25         0.70312

 Excited State  47:      Singlet-A1    18.2276 eV   68.02 nm  f=0.0375  <S**2>=0.000
       4 -> 10        -0.39609
       5 -> 16         0.48351
       7 -> 18        -0.25902

 Excited State  48:      Singlet-B1    18.3518 eV   67.56 nm  f=0.0889  <S**2>=0.000
       4 -> 13         0.16922
       5 -> 17         0.27653
       6 -> 18         0.61001

 Excited State  49:      Singlet-B1    18.4866 eV   67.07 nm  f=0.0903  <S**2>=0.000
       5 -> 17        -0.25873
       6 -> 18         0.16763
       7 -> 19         0.62394

 Excited State  50:      Singlet-B1    18.6341 eV   66.54 nm  f=0.0622  <S**2>=0.000
       5 -> 17         0.55379
       6 -> 18        -0.25844
       7 -> 19         0.30922

 Excited State  51:      Singlet-A2    18.9395 eV   65.46 nm  f=0.0000  <S**2>=0.000
       7 -> 20         0.70094

 Excited State  52:      Singlet-B1    19.1550 eV   64.73 nm  f=0.0712  <S**2>=0.000
       7 -> 21         0.67555

 Excited State  53:      Singlet-A1    19.2666 eV   64.35 nm  f=0.0720  <S**2>=0.000
       4 -> 12         0.54266
       4 -> 14        -0.24921
       4 -> 15        -0.10449
       6 -> 19         0.17831
       8 -> 27         0.27624

 Excited State  54:      Singlet-B2    19.3293 eV   64.14 nm  f=0.0058  <S**2>=0.000
       4 -> 11         0.67582
       4 -> 16         0.13659

 Excited State  55:      Singlet-A2    19.3910 eV   63.94 nm  f=0.0000  <S**2>=0.000
       5 -> 18         0.68999

 Excited State  56:      Singlet-A1    19.8316 eV   62.52 nm  f=0.0202  <S**2>=0.000
       4 -> 12        -0.29994
       4 -> 14         0.12984
       6 -> 19         0.41493
       6 -> 21         0.10287
       6 -> 26         0.10789
       8 -> 27         0.42252

 Excited State  57:      Singlet-B1    20.1054 eV   61.67 nm  f=0.0008  <S**2>=0.000
       4 -> 13         0.66196
       5 -> 17        -0.10513
       6 -> 18        -0.13356
       7 -> 21        -0.10993
       7 -> 22         0.10905

 Excited State  58:      Singlet-A1    20.2527 eV   61.22 nm  f=0.0453  <S**2>=0.000
       4 -> 12         0.12979
       4 -> 14         0.45315
       4 -> 15        -0.32168
       6 -> 19        -0.29366
       6 -> 21         0.10690
       8 -> 27         0.20360

 Excited State  59:      Singlet-A2    20.2960 eV   61.09 nm  f=0.0000  <S**2>=0.000
       7 -> 23         0.69655

 Excited State  60:      Singlet-B2    20.3355 eV   60.97 nm  f=0.0246  <S**2>=0.000
       4 -> 16        -0.16329
       6 -> 20         0.67485

 Excited State  61:      Singlet-A1    20.6222 eV   60.12 nm  f=0.0226  <S**2>=0.000
       4 -> 12         0.11064
       4 -> 14         0.28449
       4 -> 15        -0.21336
       6 -> 19         0.39687
       6 -> 21        -0.24165
       6 -> 22        -0.10552
       7 -> 25         0.20929
       8 -> 27        -0.26266

 Excited State  62:      Singlet-B1    20.6356 eV   60.08 nm  f=0.1111  <S**2>=0.000
       7 -> 22         0.66748
       7 -> 26        -0.11238

 Excited State  63:      Singlet-B2    20.7642 eV   59.71 nm  f=0.0020  <S**2>=0.000
       5 -> 19         0.19439
       7 -> 24        -0.14842
       8 -> 28         0.60990
       8 -> 29         0.19199

 Excited State  64:      Singlet-B2    20.8564 eV   59.45 nm  f=0.0838  <S**2>=0.000
       7 -> 24         0.65556
       8 -> 28         0.14031
       8 -> 29         0.13440

 Excited State  65:      Singlet-A1    20.9755 eV   59.11 nm  f=0.0381  <S**2>=0.000
       4 -> 15        -0.21490
       6 -> 21         0.56502
       6 -> 22         0.12172
       7 -> 25         0.22095
       8 -> 27        -0.16612

 Excited State  66:      Singlet-B2    21.0733 eV   58.83 nm  f=0.0427  <S**2>=0.000
       4 -> 16        -0.19490
       5 -> 19         0.64150
       8 -> 28        -0.15358

 Excited State  67:      Singlet-A1    21.2981 eV   58.21 nm  f=0.0041  <S**2>=0.000
       4 -> 12         0.16108
       4 -> 14         0.19410
       4 -> 15         0.43654
       5 -> 20         0.35568
       6 -> 22         0.13097
       7 -> 25         0.25105

 Excited State  68:      Singlet-A1    21.3642 eV   58.03 nm  f=0.0022  <S**2>=0.000
       4 -> 12        -0.11547
       4 -> 14        -0.21150
       4 -> 15        -0.19848
       5 -> 20         0.53013
       7 -> 25        -0.20938
       8 -> 30        -0.24618

 Excited State  69:      Singlet-B2    21.3651 eV   58.03 nm  f=0.0308  <S**2>=0.000
       4 -> 11        -0.11655
       4 -> 16         0.61740
       5 -> 19         0.17716
       6 -> 20         0.15456
       8 -> 28        -0.13344

 Excited State  70:      Singlet-B1    21.3820 eV   57.99 nm  f=0.0045  <S**2>=0.000
       7 -> 21        -0.10105
       7 -> 26         0.67684

 Excited State  71:      Singlet-A1    21.6519 eV   57.26 nm  f=0.0014  <S**2>=0.000
       4 -> 12        -0.14290
       4 -> 14        -0.19310
       4 -> 15        -0.19459
       6 -> 19        -0.16578
       6 -> 21        -0.21104
       6 -> 26         0.19023
       7 -> 25         0.49397
       8 -> 27         0.18201

 Excited State  72:      Singlet-B2    21.6915 eV   57.16 nm  f=0.0191  <S**2>=0.000
       5 -> 21         0.17933
       6 -> 23         0.38030
       8 -> 28        -0.14899
       8 -> 29         0.52912

 Excited State  73:      Singlet-B2    21.8393 eV   56.77 nm  f=0.0001  <S**2>=0.000
       5 -> 21         0.63743
       5 -> 22         0.19371
       8 -> 29        -0.12657

 Excited State  74:      Singlet-A2    21.9383 eV   56.51 nm  f=0.0000  <S**2>=0.000
       4 -> 17         0.56386
       6 -> 24        -0.34014
       8 -> 31        -0.22442

 Excited State  75:      Singlet-A1    21.9407 eV   56.51 nm  f=0.0157  <S**2>=0.000
       4 -> 15        -0.10324
       6 -> 21        -0.16469
       6 -> 22         0.64680
       8 -> 30         0.12710

 Excited State  76:      Singlet-A2    21.9754 eV   56.42 nm  f=0.0000  <S**2>=0.000
       4 -> 17         0.23397
       8 -> 31         0.65922

 Excited State  77:      Singlet-B2    22.0458 eV   56.24 nm  f=0.0892  <S**2>=0.000
       6 -> 23         0.55789
       8 -> 28         0.11408
       8 -> 29        -0.32891
       8 -> 32         0.15069

 Excited State  78:      Singlet-A1    22.3150 eV   55.56 nm  f=0.1118  <S**2>=0.000
       5 -> 20         0.24537
       6 -> 22        -0.14381
       7 -> 25        -0.12075
       8 -> 30         0.62465

 Excited State  79:      Singlet-A2    22.4566 eV   55.21 nm  f=0.0000  <S**2>=0.000
       4 -> 17         0.33477
       6 -> 24         0.60141

 Excited State  80:      Singlet-B1    22.8543 eV   54.25 nm  f=0.0053  <S**2>=0.000
       4 -> 18        -0.33746
       5 -> 24         0.13697
       6 -> 25         0.59662

 Excited State  81:      Singlet-B2    22.9959 eV   53.92 nm  f=0.1748  <S**2>=0.000
       5 -> 21        -0.19402
       5 -> 22         0.62644
       5 -> 26         0.10849
       8 -> 32         0.13920

 Excited State  82:      Singlet-A2    23.0330 eV   53.83 nm  f=0.0000  <S**2>=0.000
       7 -> 27         0.69373

 Excited State  83:      Singlet-B1    23.1344 eV   53.59 nm  f=0.0053  <S**2>=0.000
       4 -> 18         0.58946
       6 -> 25         0.35685

 Excited State  84:      Singlet-A1    23.3275 eV   53.15 nm  f=0.1014  <S**2>=0.000
       5 -> 23         0.65756

 Excited State  85:      Singlet-B2    23.4280 eV   52.92 nm  f=0.1298  <S**2>=0.000
       5 -> 22        -0.19857
       5 -> 26         0.11686
       8 -> 32         0.64206

 Excited State  86:      Singlet-B1    23.5062 eV   52.75 nm  f=0.1088  <S**2>=0.000
       4 -> 18         0.11683
       5 -> 24         0.67414

 Excited State  87:      Singlet-A1    23.9051 eV   51.87 nm  f=0.4602  <S**2>=0.000
       4 -> 19         0.18957
       6 -> 26         0.58963
       7 -> 25        -0.10620
       8 -> 27        -0.17007

 Excited State  88:      Singlet-A2    23.9919 eV   51.68 nm  f=0.0000  <S**2>=0.000
       5 -> 25         0.69605

 Excited State  89:      Singlet-B2    24.1927 eV   51.25 nm  f=0.0951  <S**2>=0.000
       5 -> 26         0.59640
       6 -> 27         0.32287

 Excited State  90:      Singlet-B1    24.4610 eV   50.69 nm  f=0.0079  <S**2>=0.000
       3 ->  9        -0.12185
       7 -> 28         0.62862
       7 -> 29         0.19336
       8 -> 33        -0.18819

 Excited State  91:      Singlet-B2    24.6305 eV   50.34 nm  f=0.0948  <S**2>=0.000
       4 -> 20         0.11772
       5 -> 26        -0.28317
       6 -> 27         0.58624
       6 -> 30        -0.12137
       8 -> 32         0.12196

 Excited State  92:      Singlet-B1    24.7972 eV   50.00 nm  f=0.0492  <S**2>=0.000
       3 ->  9        -0.11898
       5 -> 24         0.10903
       7 -> 28         0.21435
       7 -> 29        -0.15570
       8 -> 33         0.62694

 Excited State  93:      Singlet-A1    24.9312 eV   49.73 nm  f=0.0139  <S**2>=0.000
       4 -> 19         0.61307
       4 -> 21         0.13887
       5 -> 27        -0.21997
       6 -> 26        -0.11931
       6 -> 29         0.11180

 Excited State  94:      Singlet-B2    25.1484 eV   49.30 nm  f=0.0082  <S**2>=0.000
       4 -> 20         0.67609
       6 -> 27        -0.12142
       6 -> 30         0.12111

 Excited State  95:      Singlet-B1    25.3677 eV   48.87 nm  f=0.1105  <S**2>=0.000
       3 ->  9        -0.13261
       6 -> 31         0.13661
       7 -> 28        -0.17020
       7 -> 29         0.62064
       7 -> 32         0.11373
       8 -> 33         0.16889

 Excited State  96:      Singlet-A1    25.4754 eV   48.67 nm  f=0.0904  <S**2>=0.000
       4 -> 21        -0.24378
       4 -> 22        -0.12429
       6 -> 28         0.44427
       6 -> 29         0.23406
       7 -> 31        -0.39088

 Excited State  97:      Singlet-A2    25.6127 eV   48.41 nm  f=0.0000  <S**2>=0.000
       7 -> 30         0.43883
       8 -> 34         0.54299

 Excited State  98:      Singlet-A2    25.6602 eV   48.32 nm  f=0.0000  <S**2>=0.000
       7 -> 30         0.54895
       8 -> 34        -0.43542

 Excited State  99:      Singlet-A1    25.8118 eV   48.03 nm  f=0.0001  <S**2>=0.000
       4 -> 19        -0.15565
       4 -> 21         0.53087
       4 -> 22         0.13372
       5 -> 27        -0.19299
       6 -> 26         0.10797
       6 -> 28         0.16918
       7 -> 31        -0.25148

 Excited State 100:      Singlet-A1    26.1261 eV   47.46 nm  f=0.0058  <S**2>=0.000
       4 -> 19         0.14840
       4 -> 21         0.20257
       4 -> 22         0.12894
       5 -> 27         0.55075
       6 -> 28        -0.21026
       6 -> 29         0.14782
       7 -> 31        -0.19439

 Excited State 101:      Singlet-B1    26.2783 eV   47.18 nm  f=0.0129  <S**2>=0.000
       3 ->  9         0.61678
       6 -> 31         0.18010
       7 -> 28         0.12507
       7 -> 32         0.23500

 Excited State 102:      Singlet-A1    26.2796 eV   47.18 nm  f=0.0302  <S**2>=0.000
       4 -> 21         0.13736
       5 -> 27         0.28500
       6 -> 26        -0.11713
       6 -> 28         0.43287
       6 -> 29        -0.11954
       7 -> 31         0.38491

 Excited State 103:      Singlet-A1    26.5224 eV   46.75 nm  f=0.0112  <S**2>=0.000
       4 -> 21        -0.21210
       4 -> 22         0.64235
       6 -> 29         0.10397
       6 -> 32        -0.10617

 Excited State 104:      Singlet-B2    26.5224 eV   46.75 nm  f=0.0177  <S**2>=0.000
       4 -> 23         0.68903

 Excited State 105:      Singlet-B1    26.6600 eV   46.51 nm  f=0.0101  <S**2>=0.000
       6 -> 31        -0.45594
       7 -> 32         0.52560

 Excited State 106:      Singlet-B2    26.9165 eV   46.06 nm  f=0.1427  <S**2>=0.000
       5 -> 28        -0.27058
       6 -> 30         0.62246

 Excited State 107:      Singlet-A2    27.0488 eV   45.84 nm  f=0.0000  <S**2>=0.000
       4 -> 24         0.69678

 Excited State 108:      Singlet-B1    27.1506 eV   45.67 nm  f=0.4505  <S**2>=0.000
       3 ->  9        -0.21985
       4 -> 25        -0.20490
       6 -> 31         0.45089
       7 -> 29        -0.18635
       7 -> 32         0.36820
       8 -> 33        -0.12763

 Excited State 109:      Singlet-A1    27.1514 eV   45.66 nm  f=0.2969  <S**2>=0.000
       4 -> 19        -0.11035
       4 -> 26         0.18192
       5 -> 30         0.12255
       6 -> 29         0.56995
       7 -> 31         0.19819
       7 -> 34        -0.14060

 Excited State 110:      Singlet-B2    27.4315 eV   45.20 nm  f=0.1011  <S**2>=0.000
       5 -> 26        -0.10378
       5 -> 28         0.63504
       6 -> 30         0.24501

 Excited State 111:      Singlet-B1    27.7468 eV   44.68 nm  f=0.0154  <S**2>=0.000
       4 -> 25         0.67018
       6 -> 31         0.13507

 Excited State 112:      Singlet-A1    28.0004 eV   44.28 nm  f=0.0519  <S**2>=0.000
       4 -> 26         0.58647
       5 -> 30        -0.24626
       6 -> 29        -0.11123
       6 -> 32         0.22162
       7 -> 31        -0.10475

 Excited State 113:      Singlet-A1    28.0863 eV   44.14 nm  f=0.0002  <S**2>=0.000
       4 -> 22         0.13674
       4 -> 26        -0.20551
       5 -> 30         0.10444
       6 -> 32         0.64153

 Excited State 114:      Singlet-B2    28.2895 eV   43.83 nm  f=0.0269  <S**2>=0.000
       5 -> 29         0.56779
       7 -> 33        -0.39954

 Excited State 115:      Singlet-B2    28.4089 eV   43.64 nm  f=0.0882  <S**2>=0.000
       5 -> 29         0.40318
       7 -> 33         0.55556

 Excited State 116:      Singlet-A2    28.8300 eV   43.01 nm  f=0.0000  <S**2>=0.000
       5 -> 31         0.69393

 Excited State 117:      Singlet-A1    29.0133 eV   42.73 nm  f=0.0010  <S**2>=0.000
       4 -> 26         0.22503
       5 -> 30         0.57383
       7 -> 34         0.28160

 Excited State 118:      Singlet-A1    29.4957 eV   42.03 nm  f=0.0000  <S**2>=0.000
       3 -> 10         0.62433
       7 -> 34        -0.28017

 Excited State 119:      Singlet-A2    29.6320 eV   41.84 nm  f=0.0000  <S**2>=0.000
       6 -> 33         0.69592

 Excited State 120:      Singlet-B2    29.6689 eV   41.79 nm  f=0.0128  <S**2>=0.000
       4 -> 27         0.59509
       5 -> 32         0.30213

 The electronic state is 1-A1.
 Alpha  occ. eigenvalues --  -19.28695 -10.40568  -1.16466  -0.72809  -0.59542
 Alpha  occ. eigenvalues --   -0.54912  -0.50021  -0.36146
 Alpha virt. eigenvalues --    0.02274   0.08930   0.15168   0.16000   0.17500
 Alpha virt. eigenvalues --    0.19980   0.22347   0.22749   0.27733   0.30943
 Alpha virt. eigenvalues --    0.35851   0.37769   0.39686   0.43269   0.43336

 Mulliken charges:
               1
     1  C    0.448105
     2  O   -0.330807
     3  H   -0.058649
     4  H   -0.058649
 Sum of Mulliken charges =  -0.00000

 Dipole moment (field-independent basis, Debye):
    X=              0.0000    Y=              0.0000    Z=             -2.4706  Tot=              2.4706
 Quadrupole moment (field-independent basis, Debye-Ang):
   XX=            -11.6230   YY=            -11.5841   ZZ=            -12.2408
   XY=              0.0000   XZ=              0.0000   YZ=              0.0000

 Normal termination of Gaussian 16 at Mon Mar 21 15:54:30 2022.
