 Gaussian 16, Revision C.01,
 Gaussian 16:  EM64L-G16RevC.01  3-Jul-2019

 ----------------------------------------------------------------------
 #P TD(Nstates=10000) wB97XD/Gen SCF(maxcycles=100) Int(Grid=ultrafine)
 ----------------------------------------------------------------------

 ---------------------
 xGDB7_00001_tier4.com
 ---------------------
 Symbolic Z-matrix:
 Charge =  0 Multiplicity = 1

                         Standard orientation:
 ---------------------------------------------------------------------
 Center     Atomic      Atomic             Coordinates (Angstroms)
 Number     Number       Type             X           Y           Z
 ---------------------------------------------------------------------
      1          6           0       -0.000001    0.000006    0.000000
      2          1           0       -0.991926    0.448073    0.033817
      3          1           0        0.066172   -0.671147   -0.854975
      4          1           0        0.176250   -0.561167    0.916416
      5          1           0        0.749514    0.784204   -0.095260
 ---------------------------------------------------------------------

 SCF Done:  E(RwB97XD) =  -40.4747065675     A.U. after   11 cycles

 Excitation energies and oscillator strengths:

 Excited State   1:      Singlet-A     10.7666 eV  115.16 nm  f=0.1550  <S**2>=0.000
       5 ->  6         0.70258
 This state for optimization and/or second-order correction.
 Total Energy, E(TD-HF/TD-DFT) =  -40.0790428077
 Copying the excited state density for this state as the 1-particle RhoCI density.

 Excited State   2:      Singlet-A     10.7667 eV  115.16 nm  f=0.1550  <S**2>=0.000
       4 ->  6         0.70258

 Excited State   3:      Singlet-A     10.7667 eV  115.15 nm  f=0.1550  <S**2>=0.000
       3 ->  6         0.70258

 Excited State   4:      Singlet-A     13.2080 eV   93.87 nm  f=0.0000  <S**2>=0.000
       3 ->  8        -0.21965
       3 ->  9         0.18558
       4 ->  8         0.25479
       4 ->  9        -0.21353
       5 ->  7         0.40329
       5 ->  9        -0.22348
       5 -> 12         0.16578

 Excited State   5:      Singlet-A     13.2081 eV   93.87 nm  f=0.0000  <S**2>=0.000
       3 ->  7         0.12460
       3 ->  8        -0.29400
       3 ->  9         0.15092
       3 -> 11         0.10249
       4 ->  7         0.14983
       4 ->  8        -0.17957
       4 ->  9         0.19333
       4 -> 10        -0.10426
       5 ->  7         0.18332
       5 ->  8         0.30517
       5 ->  9         0.28163
       5 -> 10        -0.11926
       5 -> 11        -0.11249

 Excited State   6:      Singlet-A     13.2081 eV   93.87 nm  f=0.0000  <S**2>=0.000
       3 ->  7         0.16173
       3 ->  8        -0.18030
       3 ->  9        -0.38361
       3 -> 12         0.17301
       4 ->  7         0.38498
       4 ->  8         0.24621
       4 -> 10        -0.10663
       4 -> 11        -0.13879

 Excited State   7:      Singlet-A     13.2153 eV   93.82 nm  f=0.1246  <S**2>=0.000
       3 ->  7        -0.20099
       4 ->  8         0.24679
       4 ->  9        -0.32272
       5 ->  7        -0.23681
       5 ->  8         0.43474

 Excited State   8:      Singlet-A     13.2154 eV   93.82 nm  f=0.1246  <S**2>=0.000
       3 ->  7         0.43191
       4 ->  8         0.11555
       4 ->  9        -0.23470
       5 ->  7        -0.11982
       5 ->  8        -0.18049
       5 ->  9         0.37980

 Excited State   9:      Singlet-A     13.2154 eV   93.82 nm  f=0.1246  <S**2>=0.000
       3 ->  7        -0.16985
       3 ->  8         0.27422
       3 ->  9         0.34468
       4 ->  7         0.35824
       4 ->  8         0.28761
       4 ->  9         0.12251
       5 ->  9         0.11407
       5 -> 14         0.10267

 Excited State  10:      Singlet-A     13.3790 eV   92.67 nm  f=0.0000  <S**2>=0.000
       3 ->  7        -0.15802
       3 ->  8         0.10507
       3 ->  9        -0.28814
       4 ->  7        -0.28928
       4 ->  8         0.25129
       4 ->  9         0.20885
       5 ->  7         0.27960
       5 ->  9         0.31481

 Excited State  11:      Singlet-A     13.3790 eV   92.67 nm  f=0.0000  <S**2>=0.000
       3 ->  7         0.12447
       3 ->  8         0.40016
       3 ->  9        -0.17391
       4 ->  7         0.16725
       4 ->  8        -0.19502
       4 ->  9        -0.26094
       5 ->  7         0.30658
       5 ->  8         0.22852

 Excited State  12:      Singlet-A     13.7397 eV   90.24 nm  f=0.0000  <S**2>=0.000
       3 ->  7        -0.22014
       3 ->  8        -0.11426
       3 -> 10         0.21563
       3 -> 11         0.21864
       4 ->  7         0.10009
       4 ->  8        -0.12543
       4 ->  9        -0.19329
       4 -> 12         0.30651
       5 ->  8        -0.18525
       5 ->  9         0.15540
       5 -> 10        -0.22410
       5 -> 11         0.22665

 Excited State  13:      Singlet-A     13.7991 eV   89.85 nm  f=0.0000  <S**2>=0.000
       3 -> 10        -0.32953
       3 -> 11         0.28038
       4 -> 12         0.23496
       5 -> 10         0.45510
       5 -> 11         0.16991

 Excited State  14:      Singlet-A     13.7992 eV   89.85 nm  f=0.0000  <S**2>=0.000
       3 -> 11        -0.36389
       4 -> 12         0.50347
       5 -> 11        -0.27761
       5 -> 12         0.12662

 Excited State  15:      Singlet-A     13.8434 eV   89.56 nm  f=0.0000  <S**2>=0.000
       3 -> 14         0.11009
       4 ->  8        -0.12641
       4 ->  9         0.10720
       4 -> 10         0.30095
       4 -> 11        -0.29752
       5 ->  7        -0.11369
       5 ->  9         0.12472
       5 -> 12         0.44135
       5 -> 13        -0.16492

 Excited State  16:      Singlet-A     13.8434 eV   89.56 nm  f=0.0000  <S**2>=0.000
       3 ->  8        -0.13041
       3 ->  9         0.10224
       3 -> 10         0.29450
       3 -> 11        -0.30405
       4 -> 14         0.18693
       5 ->  7         0.13082
       5 ->  8         0.10400
       5 -> 10         0.31367
       5 -> 11         0.30973

 Excited State  17:      Singlet-A     13.8434 eV   89.56 nm  f=0.0000  <S**2>=0.000
       3 ->  9         0.14174
       3 -> 10         0.10839
       3 -> 12         0.42410
       3 -> 13         0.16105
       4 ->  7        -0.15674
       4 -> 10        -0.29197
       4 -> 11        -0.30945
       4 -> 12         0.11911

 Excited State  18:      Singlet-A     14.5206 eV   85.39 nm  f=0.0266  <S**2>=0.000
       3 -> 13         0.14108
       3 -> 14         0.32383
       4 -> 10        -0.27308
       4 -> 11         0.26544
       5 -> 11         0.14890
       5 -> 12         0.37717
       5 -> 13         0.18052

 Excited State  19:      Singlet-A     14.5206 eV   85.39 nm  f=0.0266  <S**2>=0.000
       3 -> 10         0.33403
       3 -> 11         0.21087
       4 -> 11         0.10755
       4 -> 13         0.38242
       4 -> 14        -0.11132
       5 -> 10         0.22205
       5 -> 11        -0.30940

 Excited State  20:      Singlet-A     14.5206 eV   85.38 nm  f=0.0265  <S**2>=0.000
       3 -> 12         0.40017
       3 -> 13        -0.19751
       4 -> 10         0.28988
       4 -> 11         0.27073
       5 -> 14        -0.34518

 Excited State  21:      Singlet-A     14.8513 eV   83.48 nm  f=0.0000  <S**2>=0.000
       3 -> 13        -0.12414
       3 -> 14        -0.29754
       4 -> 11        -0.12155
       5 -> 12         0.13508
       5 -> 13         0.57600

 Excited State  22:      Singlet-A     14.8514 eV   83.48 nm  f=0.0000  <S**2>=0.000
       3 -> 11         0.10097
       3 -> 13        -0.17546
       4 -> 13         0.16589
       4 -> 14         0.59976
       5 -> 14         0.18140

 Excited State  23:      Singlet-A     14.8514 eV   83.48 nm  f=0.0000  <S**2>=0.000
       3 -> 12        -0.12850
       3 -> 13         0.49593
       3 -> 14        -0.26898
       4 -> 10         0.11451
       4 -> 13         0.12029
       4 -> 14         0.20294
       5 -> 14        -0.27771

 Excited State  24:      Singlet-A     15.0673 eV   82.29 nm  f=0.0000  <S**2>=0.000
       3 ->  7         0.27324
       3 ->  8         0.14181
       3 -> 10         0.17094
       3 -> 11         0.17347
       4 ->  7        -0.12421
       4 ->  8         0.15567
       4 ->  9         0.23990
       4 -> 12         0.24323
       5 ->  8         0.22992
       5 ->  9        -0.19290
       5 -> 10        -0.17757
       5 -> 11         0.17974

 Excited State  25:      Singlet-A     15.1701 eV   81.73 nm  f=0.7185  <S**2>=0.000
       3 -> 12         0.27543
       3 -> 13         0.25510
       4 -> 10         0.18902
       4 -> 11         0.19213
       5 -> 14         0.46786

 Excited State  26:      Singlet-A     15.1702 eV   81.73 nm  f=0.7185  <S**2>=0.000
       3 -> 10        -0.22777
       3 -> 11        -0.14330
       4 -> 13         0.51100
       4 -> 14        -0.14450
       5 -> 10        -0.15106
       5 -> 11         0.20636
       5 -> 13         0.10826

 Excited State  27:      Singlet-A     15.1702 eV   81.73 nm  f=0.7185  <S**2>=0.000
       3 -> 13         0.20533
       3 -> 14         0.43031
       4 -> 10         0.19612
       4 -> 11        -0.16865
       5 -> 11        -0.10890
       5 -> 12        -0.25588
       5 -> 13         0.24366

 Excited State  28:      Singlet-A     17.6825 eV   70.12 nm  f=0.1144  <S**2>=0.000
       5 -> 15         0.70050

 Excited State  29:      Singlet-A     17.6826 eV   70.12 nm  f=0.1144  <S**2>=0.000
       4 -> 15         0.69931

 Excited State  30:      Singlet-A     17.6826 eV   70.12 nm  f=0.1144  <S**2>=0.000
       3 -> 15         0.69930

 Excited State  31:      Singlet-A     19.1600 eV   64.71 nm  f=0.0497  <S**2>=0.000
       5 -> 16         0.67452

 Excited State  32:      Singlet-A     19.1601 eV   64.71 nm  f=0.0497  <S**2>=0.000
       4 -> 16         0.67419

 Excited State  33:      Singlet-A     19.1601 eV   64.71 nm  f=0.0497  <S**2>=0.000
       3 -> 16         0.67426

 Excited State  34:      Singlet-A     19.2462 eV   64.42 nm  f=0.0000  <S**2>=0.000
       2 ->  6         0.66211
       3 -> 21         0.10977
       4 -> 22        -0.11441
       5 -> 20         0.13052

 Excited State  35:      Singlet-A     19.4881 eV   63.62 nm  f=0.0000  <S**2>=0.000
       3 -> 17         0.41041
       4 -> 18        -0.21441
       4 -> 19        -0.10190
       4 -> 22        -0.11875
       5 -> 17        -0.14699
       5 -> 19         0.43008

 Excited State  36:      Singlet-A     19.4881 eV   63.62 nm  f=0.0000  <S**2>=0.000
       3 -> 17         0.22218
       3 -> 18        -0.10563
       3 -> 19         0.25061
       3 -> 20         0.12175
       4 -> 18         0.48184
       5 -> 17         0.23287
       5 -> 19         0.17003

 Excited State  37:      Singlet-A     19.5618 eV   63.38 nm  f=0.0126  <S**2>=0.000
       3 -> 16        -0.12871
       4 -> 17         0.47432
       5 -> 18         0.47674

 Excited State  38:      Singlet-A     19.5618 eV   63.38 nm  f=0.0126  <S**2>=0.000
       3 -> 17        -0.47681
       4 -> 16        -0.12859
       5 -> 19         0.48030

 Excited State  39:      Singlet-A     19.5619 eV   63.38 nm  f=0.0126  <S**2>=0.000
       3 -> 18         0.48109
       4 -> 19         0.48315
       5 -> 16         0.12843

 Excited State  40:      Singlet-A     19.7120 eV   62.90 nm  f=0.0000  <S**2>=0.000
       3 -> 21         0.10606
       3 -> 22         0.17603
       4 -> 17        -0.43381
       4 -> 21         0.15631
       4 -> 22        -0.11392
       5 -> 18         0.44148

 Excited State  41:      Singlet-A     19.7120 eV   62.90 nm  f=0.0000  <S**2>=0.000
       3 -> 18         0.14302
       3 -> 19        -0.40669
       3 -> 20        -0.20404
       4 -> 17        -0.10076
       4 -> 19        -0.13274
       5 -> 17         0.42552
       5 -> 21         0.18034
       5 -> 22        -0.10310

 Excited State  42:      Singlet-A     19.7121 eV   62.90 nm  f=0.0000  <S**2>=0.000
       3 -> 18         0.41117
       3 -> 19         0.19391
       4 -> 18         0.10839
       4 -> 19        -0.40623
       4 -> 20         0.19004
       5 -> 22         0.18332

 Excited State  43:      Singlet-A     19.8651 eV   62.41 nm  f=0.0000  <S**2>=0.000
       3 -> 20         0.35600
       3 -> 21         0.11559
       3 -> 22         0.10507
       4 -> 18        -0.14939
       4 -> 20         0.17199
       4 -> 21        -0.17557
       4 -> 22        -0.16736
       5 -> 20        -0.27291
       5 -> 21         0.18332
       5 -> 22        -0.30019

 Excited State  44:      Singlet-A     19.8652 eV   62.41 nm  f=0.0000  <S**2>=0.000
       3 -> 17         0.12561
       3 -> 20         0.17966
       3 -> 21         0.27074
       3 -> 22        -0.18667
       4 -> 20        -0.14250
       4 -> 21         0.24854
       4 -> 22         0.34836
       5 -> 19         0.13409
       5 -> 21         0.28121

 Excited State  45:      Singlet-A     19.9602 eV   62.12 nm  f=0.0000  <S**2>=0.000
       3 -> 19         0.40370
       4 -> 18        -0.40013
       5 -> 17         0.39611

 Excited State  46:      Singlet-A     19.9972 eV   62.00 nm  f=0.0000  <S**2>=0.000
       3 -> 18        -0.18733
       3 -> 20        -0.27628
       4 -> 19         0.18600
       4 -> 20         0.32687
       5 -> 17        -0.11816
       5 -> 20        -0.12267
       5 -> 21         0.40901
       5 -> 22         0.12694

 Excited State  47:      Singlet-A     19.9973 eV   62.00 nm  f=0.0000  <S**2>=0.000
       3 -> 19        -0.19544
       3 -> 20         0.33232
       4 -> 20         0.28917
       5 -> 17         0.16429
       5 -> 21        -0.12249
       5 -> 22         0.42228

 Excited State  48:      Singlet-A     19.9973 eV   62.00 nm  f=0.0000  <S**2>=0.000
       3 -> 21         0.24026
       3 -> 22         0.37074
       4 -> 17         0.19708
       4 -> 21         0.37003
       4 -> 22        -0.23890
       5 -> 18        -0.20291

 Excited State  49:      Singlet-A     20.4773 eV   60.55 nm  f=0.1557  <S**2>=0.000
       3 -> 27        -0.12080
       4 -> 20         0.38899
       4 -> 21         0.20849
       5 -> 16         0.13996
       5 -> 20         0.27151
       5 -> 21        -0.19007
       5 -> 22        -0.34626

 Excited State  50:      Singlet-A     20.4773 eV   60.55 nm  f=0.1557  <S**2>=0.000
       3 -> 20         0.21276
       3 -> 21        -0.32641
       3 -> 22         0.25830
       4 -> 16         0.13699
       4 -> 20        -0.11280
       4 -> 26         0.14146
       5 -> 20         0.35562
       5 -> 21         0.27612

 Excited State  51:      Singlet-A     20.4774 eV   60.55 nm  f=0.1557  <S**2>=0.000
       3 -> 16         0.13542
       3 -> 20        -0.13759
       3 -> 21         0.25873
       3 -> 22         0.35871
       4 -> 21        -0.31502
       4 -> 22         0.33567
       5 -> 27        -0.12899

 Excited State  52:      Singlet-A     20.5587 eV   60.31 nm  f=0.0000  <S**2>=0.000
       2 ->  6        -0.17946
       3 -> 21         0.26438
       3 -> 22        -0.17783
       3 -> 25        -0.20993
       4 -> 21        -0.16982
       4 -> 22        -0.27522
       4 -> 24        -0.21329
       5 -> 20         0.31357
       5 -> 23        -0.21097

 Excited State  53:      Singlet-A     21.3511 eV   58.07 nm  f=0.0032  <S**2>=0.000
       2 -> 11        -0.10242
       4 -> 23         0.45079
       5 -> 23         0.15380
       5 -> 24         0.46753

 Excited State  54:      Singlet-A     21.3512 eV   58.07 nm  f=0.0032  <S**2>=0.000
       2 -> 12         0.13063
       3 -> 25         0.47652
       4 -> 23         0.11637
       5 -> 23        -0.46243

 Excited State  55:      Singlet-A     21.3513 eV   58.07 nm  f=0.0032  <S**2>=0.000
       2 -> 10         0.10172
       3 -> 24         0.47787
       4 -> 25         0.46859

 Excited State  56:      Singlet-A     21.3540 eV   58.06 nm  f=0.0000  <S**2>=0.000
       4 -> 23         0.49209
       5 -> 24        -0.48650

 Excited State  57:      Singlet-A     21.3541 eV   58.06 nm  f=0.0000  <S**2>=0.000
       3 -> 23        -0.48170
       5 -> 25         0.48674

 Excited State  58:      Singlet-A     21.3542 eV   58.06 nm  f=0.0000  <S**2>=0.000
       3 -> 24        -0.48656
       4 -> 25         0.49271

 Excited State  59:      Singlet-A     21.4436 eV   57.82 nm  f=0.0000  <S**2>=0.000
       3 -> 25        -0.26400
       4 -> 24         0.53733
       5 -> 23        -0.26412
       5 -> 24         0.10024
       5 -> 25         0.18107

 Excited State  60:      Singlet-A     21.4436 eV   57.82 nm  f=0.0000  <S**2>=0.000
       3 -> 23         0.49017
       4 -> 24        -0.15617
       5 -> 25         0.45927

 Excited State  61:      Singlet-A     21.9024 eV   56.61 nm  f=0.0094  <S**2>=0.000
       2 ->  7         0.47838
       2 ->  8        -0.44177
       2 ->  9         0.14045

 Excited State  62:      Singlet-A     21.9025 eV   56.61 nm  f=0.0094  <S**2>=0.000
       2 ->  7         0.43464
       2 ->  8         0.35729
       2 ->  9        -0.35660

 Excited State  63:      Singlet-A     21.9025 eV   56.61 nm  f=0.0094  <S**2>=0.000
       2 ->  7         0.16115
       2 ->  8         0.34773
       2 ->  9         0.54483

 Excited State  64:      Singlet-A     22.5207 eV   55.05 nm  f=0.0000  <S**2>=0.000
       2 ->  6        -0.15531
       2 -> 15        -0.16344
       3 -> 21         0.14206
       3 -> 25         0.32772
       4 -> 22        -0.14806
       4 -> 24         0.33285
       5 -> 20         0.16889
       5 -> 23         0.32911

 Excited State  65:      Singlet-A     22.6270 eV   54.79 nm  f=0.0365  <S**2>=0.000
       2 -> 10         0.59484
       2 -> 11         0.32718

 Excited State  66:      Singlet-A     22.6271 eV   54.79 nm  f=0.0365  <S**2>=0.000
       2 -> 11         0.11747
       2 -> 12         0.67088

 Excited State  67:      Singlet-A     22.6271 eV   54.79 nm  f=0.0365  <S**2>=0.000
       2 -> 10        -0.33172
       2 -> 11         0.58569
       2 -> 12        -0.10395

 Excited State  68:      Singlet-A     22.8754 eV   54.20 nm  f=0.0000  <S**2>=0.000
       3 -> 26        -0.21455
       3 -> 27        -0.27142
       4 -> 27         0.21895
       5 -> 26         0.57066

 Excited State  69:      Singlet-A     22.8755 eV   54.20 nm  f=0.0000  <S**2>=0.000
       3 -> 26         0.53026
       3 -> 27        -0.29658
       4 -> 27         0.12566
       5 -> 27        -0.32103

 Excited State  70:      Singlet-A     22.8755 eV   54.20 nm  f=0.0000  <S**2>=0.000
       4 -> 26         0.19475
       4 -> 27         0.62137
       5 -> 26        -0.20717
       5 -> 27         0.14820

 Excited State  71:      Singlet-A     23.3442 eV   53.11 nm  f=0.0000  <S**2>=0.000
       2 -> 13         0.69756

 Excited State  72:      Singlet-A     23.3442 eV   53.11 nm  f=0.0000  <S**2>=0.000
       2 -> 14         0.69756

 Excited State  73:      Singlet-A     23.5728 eV   52.60 nm  f=0.3318  <S**2>=0.000
       2 ->  7        -0.14258
       3 -> 26         0.26738
       3 -> 27        -0.10809
       4 -> 26         0.18060
       4 -> 27        -0.13408
       5 -> 27         0.54450

 Excited State  74:      Singlet-A     23.5728 eV   52.60 nm  f=0.3318  <S**2>=0.000
       2 ->  9         0.12021
       3 -> 26        -0.11292
       3 -> 27         0.10606
       4 -> 26         0.59605
       4 -> 27        -0.12905
       5 -> 26         0.10943
       5 -> 27        -0.16864

 Excited State  75:      Singlet-A     23.5728 eV   52.60 nm  f=0.3318  <S**2>=0.000
       2 ->  8        -0.12610
       3 -> 26         0.25224
       3 -> 27         0.51538
       5 -> 26         0.30494

 Excited State  76:      Singlet-A     26.4385 eV   46.90 nm  f=0.0000  <S**2>=0.000
       2 -> 15         0.67215
       2 -> 16        -0.11392

 Excited State  77:      Singlet-A     27.9472 eV   44.36 nm  f=0.0000  <S**2>=0.000
       2 -> 16         0.69186

 Excited State  78:      Singlet-A     28.0863 eV   44.14 nm  f=0.0000  <S**2>=0.000
       2 -> 17         0.70257

 Excited State  79:      Singlet-A     28.0863 eV   44.14 nm  f=0.0000  <S**2>=0.000
       2 -> 18         0.70236

 Excited State  80:      Singlet-A     28.0864 eV   44.14 nm  f=0.0000  <S**2>=0.000
       2 -> 19         0.70237

 Excited State  81:      Singlet-A     28.6063 eV   43.34 nm  f=0.0000  <S**2>=0.000
       2 -> 20         0.69475

 Excited State  82:      Singlet-A     28.6064 eV   43.34 nm  f=0.0000  <S**2>=0.000
       2 -> 21         0.67842
       2 -> 22         0.16901

 Excited State  83:      Singlet-A     28.6064 eV   43.34 nm  f=0.0000  <S**2>=0.000
       2 -> 21        -0.16947
       2 -> 22         0.67390

 Excited State  84:      Singlet-A     29.9057 eV   41.46 nm  f=0.0068  <S**2>=0.000
       2 -> 23         0.69735

 Excited State  85:      Singlet-A     29.9058 eV   41.46 nm  f=0.0068  <S**2>=0.000
       2 -> 24         0.69664

 Excited State  86:      Singlet-A     29.9059 eV   41.46 nm  f=0.0068  <S**2>=0.000
       2 -> 25         0.70146

 Excited State  87:      Singlet-A     31.0346 eV   39.95 nm  f=0.0000  <S**2>=0.000
       3 -> 28        -0.32322
       4 -> 28         0.37176
       5 -> 29         0.24798
       5 -> 30         0.42897

 Excited State  88:      Singlet-A     31.0349 eV   39.95 nm  f=0.0000  <S**2>=0.000
       3 -> 28         0.35768
       3 -> 29        -0.12515
       4 -> 28         0.32125
       5 -> 29         0.41847
       5 -> 30        -0.24836

 Excited State  89:      Singlet-A     31.0350 eV   39.95 nm  f=0.0000  <S**2>=0.000
       3 -> 28         0.11614
       3 -> 29         0.45233
       3 -> 30         0.15913
       4 -> 29        -0.16458
       4 -> 30         0.46491

 Excited State  90:      Singlet-A     31.1491 eV   39.80 nm  f=0.0000  <S**2>=0.000
       2 -> 27        -0.24748
       3 -> 28         0.41134
       4 -> 29        -0.16827

 The electronic state is 1-A.
 Alpha  occ. eigenvalues --  -10.28148  -0.78493  -0.47644  -0.47644  -0.47644
 Alpha virt. eigenvalues --    0.09528   0.20092   0.20092   0.20092   0.23404
 Alpha virt. eigenvalues --    0.23404   0.23404   0.25627   0.25627   0.35517
 Alpha virt. eigenvalues --    0.41783   0.43470   0.43470   0.43470   0.45015

 Mulliken charges:
               1
     1  C    0.130821
     2  H   -0.032677
     3  H   -0.032719
     4  H   -0.032720
     5  H   -0.032705
 Sum of Mulliken charges =  -0.00000

 Dipole moment (field-independent basis, Debye):
    X=              0.0000    Y=             -0.0000    Z=              0.0000  Tot=              0.0000
 Quadrupole moment (field-independent basis, Debye-Ang):
   XX=             -8.3470   YY=             -8.3471   ZZ=             -8.3472
   XY=             -0.0000   XZ=              0.0000   YZ=             -0.0000

 Normal termination of Gaussian 16 at Mon Mar 21 16:01:34 2022.
