 Gaussian 16, Revision C.01,
 Gaussian 16:  EM64L-G16RevC.01  3-Jul-2019

 ----------------------------------------------------------------------
 #P TD(Nstates=10000) wB97XD/Gen SCF(maxcycles=100) Int(Grid=ultrafine)
 ----------------------------------------------------------------------

 ---------------------
 xGDB7_00001_tier4.com
 ---------------------
 Symbolic Z-matrix:
 Charge =  0 Multiplicity = 1

                         Standard orientation:
 ---------------------------------------------------------------------
 Center     Atomic      Atomic             Coordinates (Angstroms)
 Number     Number       Type             X           Y           Z
 ---------------------------------------------------------------------
      1          6           0       -0.026655   -0.220923    1.206915
      2          7           0       -0.026655    0.579675   -0.000000
      3          6           0       -0.026655   -0.220923   -1.206915
      4          1           0        0.028929    0.427196    2.082330
      5          1           0        0.800836   -0.947383    1.258571
      6          1           0       -0.961718   -0.783094    1.269367
      7          1           0        0.770359    1.199905   -0.000000
      8          1           0       -0.961718   -0.783094   -1.269367
      9          1           0        0.800836   -0.947383   -1.258571
     10          1           0        0.028929    0.427196   -2.082330
 ---------------------------------------------------------------------

 SCF Done:  E(RwB97XD) =  -135.033652380     A.U. after   15 cycles

 Excitation energies and oscillator strengths:

 Excited State   1:      Singlet-A'     6.2139 eV  199.53 nm  f=0.0018  <S**2>=0.000
      13 -> 14         0.66144
      13 -> 16         0.22629
 This state for optimization and/or second-order correction.
 Total Energy, E(TD-HF/TD-DFT) =  -134.805296819
 Copying the excited state density for this state as the 1-particle RhoCI density.

 Excited State   2:      Singlet-A'     7.4180 eV  167.14 nm  f=0.0514  <S**2>=0.000
      13 -> 14        -0.21788
      13 -> 16         0.66023

 Excited State   3:      Singlet-A"     7.4354 eV  166.75 nm  f=0.0038  <S**2>=0.000
      13 -> 15         0.69727

 Excited State   4:      Singlet-A'     8.3247 eV  148.94 nm  f=0.0255  <S**2>=0.000
      13 -> 17         0.53651
      13 -> 18        -0.41982
      13 -> 19         0.13317

 Excited State   5:      Singlet-A'     8.4189 eV  147.27 nm  f=0.0983  <S**2>=0.000
      13 -> 17         0.42371
      13 -> 18         0.53696

 Excited State   6:      Singlet-A'     8.9867 eV  137.96 nm  f=0.0087  <S**2>=0.000
      13 -> 17        -0.14400
      13 -> 19         0.67115
      13 -> 22        -0.12120

 Excited State   7:      Singlet-A"     9.2899 eV  133.46 nm  f=0.0306  <S**2>=0.000
      13 -> 20         0.69227

 Excited State   8:      Singlet-A'     9.5536 eV  129.78 nm  f=0.0099  <S**2>=0.000
      13 -> 18         0.10671
      13 -> 19         0.11964
      13 -> 22         0.67659

 Excited State   9:      Singlet-A"     9.8099 eV  126.39 nm  f=0.0669  <S**2>=0.000
      12 -> 14        -0.10055
      13 -> 21         0.64470
      13 -> 23         0.24102

 Excited State  10:      Singlet-A"    10.1347 eV  122.34 nm  f=0.0639  <S**2>=0.000
      11 -> 15        -0.15819
      12 -> 14         0.63981
      13 -> 23         0.18710

 Excited State  11:      Singlet-A'    10.1669 eV  121.95 nm  f=0.0346  <S**2>=0.000
      11 -> 14         0.65283
      11 -> 16         0.10012
      12 -> 15        -0.18134

 Excited State  12:      Singlet-A"    10.2314 eV  121.18 nm  f=0.0197  <S**2>=0.000
      12 -> 14        -0.16355
      13 -> 21        -0.26390
      13 -> 23         0.62389

 Excited State  13:      Singlet-A'    10.4745 eV  118.37 nm  f=0.0025  <S**2>=0.000
      13 -> 24         0.68290

 Excited State  14:      Singlet-A"    10.6468 eV  116.45 nm  f=0.0014  <S**2>=0.000
      10 -> 14         0.54355
      11 -> 15        -0.21769
      13 -> 25        -0.32418
      13 -> 26        -0.11940

 Excited State  15:      Singlet-A"    10.7495 eV  115.34 nm  f=0.0160  <S**2>=0.000
      10 -> 14         0.32039
      11 -> 15        -0.10988
      13 -> 25         0.59579

 Excited State  16:      Singlet-A'    11.1492 eV  111.20 nm  f=0.1024  <S**2>=0.000
       8 -> 14         0.14046
      11 -> 16         0.35093
      12 -> 15         0.55235
      13 -> 27        -0.11448

 Excited State  17:      Singlet-A"    11.1875 eV  110.82 nm  f=0.0311  <S**2>=0.000
      11 -> 15        -0.15249
      13 -> 25        -0.12296
      13 -> 26         0.63557
      13 -> 29        -0.15704

 Excited State  18:      Singlet-A"    11.2713 eV  110.00 nm  f=0.0028  <S**2>=0.000
       9 -> 14         0.13084
      10 -> 14         0.20946
      11 -> 15         0.41327
      12 -> 16         0.45289
      12 -> 18         0.12733
      13 -> 26         0.13226

 Excited State  19:      Singlet-A'    11.3664 eV  109.08 nm  f=0.1664  <S**2>=0.000
       8 -> 14        -0.14710
      10 -> 15         0.23565
      11 -> 14        -0.13784
      11 -> 16         0.55085
      12 -> 15        -0.27066

 Excited State  20:      Singlet-A"    11.4862 eV  107.94 nm  f=0.0162  <S**2>=0.000
       9 -> 14        -0.12859
      10 -> 14        -0.13429
      11 -> 15        -0.36954
      12 -> 14        -0.15085
      12 -> 16         0.50906

 Excited State  21:      Singlet-A'    11.8390 eV  104.73 nm  f=0.0504  <S**2>=0.000
       8 -> 14        -0.16204
      10 -> 15         0.54703
      11 -> 14         0.12315
      11 -> 16        -0.19342
      11 -> 18         0.19412
      12 -> 15         0.14042
      13 -> 28        -0.15451

 Excited State  22:      Singlet-A'    11.8577 eV  104.56 nm  f=0.0136  <S**2>=0.000
      10 -> 15        -0.12897
      11 -> 17         0.10310
      12 -> 15         0.10132
      13 -> 27         0.61111
      13 -> 28        -0.19375

 Excited State  23:      Singlet-A"    12.0381 eV  102.99 nm  f=0.0100  <S**2>=0.000
      10 -> 16         0.65069
      11 -> 20         0.11761
      12 -> 17        -0.11506

 Excited State  24:      Singlet-A"    12.1746 eV  101.84 nm  f=0.1338  <S**2>=0.000
       9 -> 14        -0.25666
      12 -> 17         0.19160
      12 -> 18         0.57570
      12 -> 19         0.12306

 Excited State  25:      Singlet-A"    12.1894 eV  101.71 nm  f=0.1300  <S**2>=0.000
      10 -> 16         0.12800
      12 -> 17         0.62588
      12 -> 18        -0.16581

 Excited State  26:      Singlet-A'    12.2007 eV  101.62 nm  f=0.0374  <S**2>=0.000
      11 -> 17         0.60975
      12 -> 21         0.12818
      13 -> 27        -0.16747
      13 -> 28        -0.19852

 Excited State  27:      Singlet-A'    12.3570 eV  100.34 nm  f=0.0674  <S**2>=0.000
      10 -> 15         0.18518
      11 -> 17         0.23280
      11 -> 18        -0.34349
      11 -> 19         0.10458
      13 -> 27         0.11366
      13 -> 28         0.45327

 Excited State  28:      Singlet-A"    12.4177 eV   99.84 nm  f=0.1182  <S**2>=0.000
       8 -> 15        -0.12793
       9 -> 14         0.56305
       9 -> 16         0.11496
      10 -> 18        -0.11021
      11 -> 15        -0.19744
      12 -> 18         0.23769

 Excited State  29:      Singlet-A'    12.4284 eV   99.76 nm  f=0.0648  <S**2>=0.000
       8 -> 14         0.19376
       9 -> 15        -0.17868
      11 -> 18         0.48576
      13 -> 27         0.10942
      13 -> 28         0.36756

 Excited State  30:      Singlet-A"    12.5495 eV   98.80 nm  f=0.0164  <S**2>=0.000
      10 -> 17         0.19577
      10 -> 19         0.16369
      12 -> 19        -0.13257
      13 -> 26         0.15523
      13 -> 29         0.56741
      13 -> 33         0.11411

 Excited State  31:      Singlet-A'    12.6503 eV   98.01 nm  f=0.0300  <S**2>=0.000
       8 -> 14         0.54974
       8 -> 16         0.17544
      10 -> 15         0.18992
      11 -> 18        -0.14767
      12 -> 15        -0.12041
      13 -> 28        -0.14106

 Excited State  32:      Singlet-A"    12.8220 eV   96.70 nm  f=0.0819  <S**2>=0.000
       9 -> 16        -0.10427
      10 -> 17         0.47238
      10 -> 18        -0.20364
      11 -> 20         0.31609
      12 -> 19         0.18756
      13 -> 29        -0.10212

 Excited State  33:      Singlet-A"    12.8305 eV   96.63 nm  f=0.0204  <S**2>=0.000
       9 -> 14         0.13529
      10 -> 18         0.35594
      12 -> 19         0.50438
      12 -> 22        -0.17724

 Excited State  34:      Singlet-A'    12.8532 eV   96.46 nm  f=0.0072  <S**2>=0.000
      11 -> 19         0.63700
      13 -> 30         0.13688

 Excited State  35:      Singlet-A"    12.9148 eV   96.00 nm  f=0.0000  <S**2>=0.000
       8 -> 15         0.15670
      10 -> 17         0.19671
      10 -> 18         0.44041
      12 -> 19        -0.33252
      12 -> 22        -0.10444
      13 -> 29        -0.24031

 Excited State  36:      Singlet-A'    13.0018 eV   95.36 nm  f=0.1671  <S**2>=0.000
      11 -> 19        -0.13994
      11 -> 22        -0.13262
      12 -> 23        -0.10078
      13 -> 30         0.63321

 Excited State  37:      Singlet-A"    13.1320 eV   94.41 nm  f=0.0674  <S**2>=0.000
       9 -> 14         0.16462
       9 -> 16        -0.34987
      10 -> 17        -0.30575
      10 -> 19         0.19675
      11 -> 20         0.37640
      11 -> 21        -0.10608

 Excited State  38:      Singlet-A'    13.1518 eV   94.27 nm  f=0.0316  <S**2>=0.000
       8 -> 14         0.15228
       8 -> 16        -0.22129
       8 -> 18         0.10612
      10 -> 21         0.12243
      11 -> 22        -0.23289
      12 -> 20         0.51238
      13 -> 30        -0.13730

 Excited State  39:      Singlet-A"    13.2532 eV   93.55 nm  f=0.0444  <S**2>=0.000
       9 -> 16         0.18598
      10 -> 19         0.47238
      12 -> 19         0.14179
      12 -> 22         0.36376
      13 -> 29        -0.10088

 Excited State  40:      Singlet-A'    13.2652 eV   93.47 nm  f=0.0300  <S**2>=0.000
       8 -> 16        -0.22436
       9 -> 15        -0.27067
      10 -> 20        -0.16659
      11 -> 22         0.48313
      12 -> 20         0.12942
      12 -> 21        -0.11005
      12 -> 23         0.15734
      13 -> 30         0.10151

 Excited State  41:      Singlet-A'    13.4339 eV   92.29 nm  f=0.0227  <S**2>=0.000
       8 -> 16         0.12480
       8 -> 18        -0.14533
       9 -> 15        -0.14371
      10 -> 20         0.20249
      12 -> 20         0.11754
      12 -> 21         0.38169
      12 -> 23         0.21806
      13 -> 31         0.31367
      13 -> 32        -0.12926
      13 -> 34         0.10713

 Excited State  42:      Singlet-A'    13.4782 eV   91.99 nm  f=0.0089  <S**2>=0.000
       8 -> 17        -0.20532
       9 -> 15         0.28304
      10 -> 20        -0.27317
      12 -> 21         0.44050
      13 -> 31        -0.17396

 Excited State  43:      Singlet-A"    13.4839 eV   91.95 nm  f=0.0199  <S**2>=0.000
       9 -> 16        -0.28653
       9 -> 17         0.13991
      10 -> 17         0.13941
      10 -> 18         0.16484
      10 -> 19        -0.26785
      11 -> 21        -0.33527
      12 -> 22         0.34021

 Excited State  44:      Singlet-A'    13.5827 eV   91.28 nm  f=0.0755  <S**2>=0.000
       9 -> 15         0.49059
      11 -> 18         0.14998
      11 -> 22         0.18200
      11 -> 24        -0.11856
      12 -> 21        -0.18073
      12 -> 23         0.10939
      13 -> 31         0.27938

 Excited State  45:      Singlet-A"    13.5894 eV   91.24 nm  f=0.0005  <S**2>=0.000
       9 -> 16         0.31051
       9 -> 17        -0.16392
      10 -> 17        -0.12953
      10 -> 18         0.10811
      10 -> 19        -0.28402
      11 -> 20         0.38666
      12 -> 22         0.25139

 Excited State  46:      Singlet-A'    13.6285 eV   90.97 nm  f=0.1834  <S**2>=0.000
       8 -> 16        -0.11429
      10 -> 20        -0.32705
      11 -> 24         0.11503
      12 -> 20        -0.21151
      12 -> 23        -0.18703
      13 -> 30        -0.11585
      13 -> 31         0.41481
      13 -> 34         0.14487

 Excited State  47:      Singlet-A"    13.6285 eV   90.97 nm  f=0.0051  <S**2>=0.000
       9 -> 16        -0.28959
       9 -> 17        -0.20605
       9 -> 18        -0.13636
      11 -> 20        -0.11763
      11 -> 21         0.42495
      11 -> 23         0.23184
      12 -> 22         0.21978

 Excited State  48:      Singlet-A'    13.7523 eV   90.16 nm  f=0.0154  <S**2>=0.000
       7 -> 14        -0.23927
       8 -> 14        -0.10773
       8 -> 16         0.38736
       8 -> 18         0.12650
      11 -> 22         0.19903
      12 -> 20         0.26294
      12 -> 23        -0.27417
      12 -> 25        -0.10692

 Excited State  49:      Singlet-A"    13.8142 eV   89.75 nm  f=0.0271  <S**2>=0.000
       8 -> 15         0.49968
      10 -> 18        -0.10281
      10 -> 19        -0.10039
      10 -> 22         0.33093
      11 -> 23         0.18294
      12 -> 22        -0.11778

 Excited State  50:      Singlet-A"    13.9020 eV   89.18 nm  f=0.0395  <S**2>=0.000
       8 -> 15        -0.21532
       9 -> 17         0.11286
       9 -> 18        -0.12193
      10 -> 22         0.28188
      11 -> 20         0.12039
      11 -> 23         0.25523
      12 -> 22        -0.12665
      13 -> 29        -0.15492
      13 -> 33         0.41201

 Excited State  51:      Singlet-A'    13.9498 eV   88.88 nm  f=0.0611  <S**2>=0.000
       7 -> 14         0.57435
       7 -> 16         0.10664
       8 -> 16         0.12192
      10 -> 20        -0.11252
      11 -> 22         0.10668
      11 -> 24         0.12991
      12 -> 23        -0.14563

 Excited State  52:      Singlet-A"    14.0573 eV   88.20 nm  f=0.0025  <S**2>=0.000
       8 -> 15         0.26237
       9 -> 18         0.14724
      10 -> 22        -0.14049
      10 -> 24         0.10137
      11 -> 23        -0.23991
      12 -> 24        -0.11162
      13 -> 33         0.48665

 Excited State  53:      Singlet-A'    14.0689 eV   88.13 nm  f=0.0193  <S**2>=0.000
      13 -> 31         0.16930
      13 -> 32         0.65306

 Excited State  54:      Singlet-A'    14.1282 eV   87.76 nm  f=0.0205  <S**2>=0.000
       8 -> 16         0.32293
       8 -> 18        -0.15213
       8 -> 19        -0.14488
      10 -> 20        -0.27761
      10 -> 21        -0.27837
      11 -> 22        -0.12088
      12 -> 20         0.10126
      12 -> 21        -0.12705
      12 -> 23         0.25518
      12 -> 25         0.16227
      13 -> 34         0.10046

 Excited State  55:      Singlet-A"    14.1850 eV   87.41 nm  f=0.0013  <S**2>=0.000
       8 -> 15        -0.16165
       9 -> 17        -0.16246
       9 -> 18         0.43194
      10 -> 22         0.29642
      11 -> 23        -0.18459
      11 -> 25        -0.23818
      12 -> 24         0.11447

 Excited State  56:      Singlet-A'    14.2949 eV   86.73 nm  f=0.0659  <S**2>=0.000
       8 -> 16         0.12505
       8 -> 17         0.12715
       8 -> 18         0.11187
      10 -> 21         0.25188
      12 -> 25        -0.18742
      13 -> 31        -0.14427
      13 -> 34         0.52419

 Excited State  57:      Singlet-A'    14.3294 eV   86.52 nm  f=0.1240  <S**2>=0.000
       8 -> 16        -0.12325
       8 -> 18        -0.12805
       8 -> 19        -0.10196
      10 -> 20         0.20485
      10 -> 21        -0.22921
      10 -> 23        -0.11618
      11 -> 22         0.11949
      12 -> 23        -0.28885
      12 -> 25         0.23533
      12 -> 26        -0.12303
      13 -> 34         0.33816

 Excited State  58:      Singlet-A"    14.3370 eV   86.48 nm  f=0.0635  <S**2>=0.000
       8 -> 20         0.10038
       9 -> 17         0.37021
       9 -> 18         0.13214
      11 -> 21         0.14974
      12 -> 22         0.10305
      12 -> 24         0.48765

 Excited State  59:      Singlet-A"    14.3633 eV   86.32 nm  f=0.0098  <S**2>=0.000
       9 -> 17         0.41248
       9 -> 18         0.20794
       9 -> 19         0.10786
      11 -> 21         0.25604
      11 -> 25        -0.10396
      12 -> 24        -0.36358
      13 -> 33        -0.10549

 Excited State  60:      Singlet-A'    14.4951 eV   85.54 nm  f=0.0683  <S**2>=0.000
       8 -> 17        -0.11222
       8 -> 18         0.11180
       8 -> 22        -0.12697
       9 -> 20         0.11048
      10 -> 20         0.13432
      10 -> 21        -0.15776
      11 -> 24         0.42324
      12 -> 23         0.13973
      12 -> 25        -0.30324
      12 -> 26        -0.18927
      13 -> 37        -0.10355

 Excited State  61:      Singlet-A"    14.6153 eV   84.83 nm  f=0.1121  <S**2>=0.000
       9 -> 18         0.26356
       9 -> 22        -0.17737
      10 -> 22        -0.34758
      11 -> 23         0.43197
      11 -> 25        -0.13380
      12 -> 22        -0.10762

 Excited State  62:      Singlet-A'    14.6506 eV   84.63 nm  f=0.0048  <S**2>=0.000
       8 -> 17         0.38315
       8 -> 18         0.32668
       9 -> 21         0.10494
      10 -> 21        -0.30955
      10 -> 23         0.13971
      12 -> 21         0.14094
      13 -> 36        -0.17022

 Excited State  63:      Singlet-A"    14.6979 eV   84.36 nm  f=0.0419  <S**2>=0.000
       7 -> 15         0.11732
       8 -> 20         0.13253
       9 -> 19         0.51266
      10 -> 24        -0.16468
      11 -> 25        -0.27661
      11 -> 26         0.19097
      12 -> 24         0.12622

 Excited State  64:      Singlet-A'    14.7326 eV   84.16 nm  f=0.1899  <S**2>=0.000
       7 -> 14        -0.15146
       7 -> 16         0.21454
       8 -> 18         0.11238
      10 -> 21         0.23856
      10 -> 23         0.30349
      11 -> 22         0.10611
      11 -> 24         0.21992
      12 -> 23         0.15825
      12 -> 25         0.30210
      13 -> 37         0.10869

 Excited State  65:      Singlet-A'    14.7659 eV   83.97 nm  f=0.1042  <S**2>=0.000
       8 -> 17         0.38666
       8 -> 18        -0.20279
      10 -> 23        -0.13725
      10 -> 25        -0.12811
      11 -> 24         0.30834
      13 -> 37         0.28368

 Excited State  66:      Singlet-A"    14.9138 eV   83.13 nm  f=0.1813  <S**2>=0.000
       7 -> 15         0.47626
       9 -> 19         0.18500
      10 -> 24         0.36560
      11 -> 25         0.17286

 Excited State  67:      Singlet-A'    14.9179 eV   83.11 nm  f=0.0138  <S**2>=0.000
       8 -> 18        -0.16122
       8 -> 19         0.39204
       9 -> 20         0.14062
      10 -> 21        -0.14119
      10 -> 23         0.31272
      11 -> 24         0.11671
      12 -> 26         0.23695
      13 -> 34         0.10997
      13 -> 36         0.14436

 Excited State  68:      Singlet-A"    14.9485 eV   82.94 nm  f=0.0057  <S**2>=0.000
       7 -> 15        -0.12992
       9 -> 17        -0.15152
       9 -> 18         0.26128
       9 -> 19         0.16986
       9 -> 22         0.12554
      10 -> 22         0.10213
      10 -> 24        -0.11355
      11 -> 23         0.10336
      11 -> 25         0.40817
      11 -> 26         0.29890
      13 -> 35         0.13046

 Excited State  69:      Singlet-A'    14.9923 eV   82.70 nm  f=0.0020  <S**2>=0.000
       8 -> 18         0.10778
      12 -> 26        -0.20469
      13 -> 36         0.53843
      13 -> 37         0.29602

 Excited State  70:      Singlet-A'    15.0529 eV   82.37 nm  f=0.0102  <S**2>=0.000
       7 -> 14        -0.10807
       7 -> 16         0.54583
       8 -> 19         0.12613
      10 -> 20        -0.15341
      10 -> 23        -0.17960
      10 -> 25         0.11166
      13 -> 37        -0.10901

 Excited State  71:      Singlet-A"    15.1158 eV   82.02 nm  f=0.1057  <S**2>=0.000
       7 -> 15         0.23240
       8 -> 20         0.10801
      10 -> 24        -0.28931
      11 -> 26        -0.20015
      12 -> 24        -0.14192
      13 -> 35         0.45320

 Excited State  72:      Singlet-A'    15.1408 eV   81.89 nm  f=0.1592  <S**2>=0.000
       8 -> 18        -0.19556
       8 -> 19        -0.18119
       9 -> 20         0.19234
      10 -> 23         0.30779
      10 -> 25        -0.18962
      11 -> 22        -0.11698
      11 -> 24        -0.20208
      12 -> 25        -0.20035
      12 -> 26        -0.26536
      13 -> 36        -0.13207

 Excited State  73:      Singlet-A"    15.1992 eV   81.57 nm  f=0.0006  <S**2>=0.000
       7 -> 15        -0.33078
       8 -> 20        -0.10122
       9 -> 19         0.13206
      10 -> 24         0.32855
      11 -> 25        -0.10018
      11 -> 26        -0.12032
      13 -> 35         0.42338

 Excited State  74:      Singlet-A'    15.2814 eV   81.13 nm  f=0.0051  <S**2>=0.000
       7 -> 16         0.12256
       7 -> 19        -0.10917
       8 -> 17        -0.15610
       8 -> 19        -0.20152
       9 -> 20         0.31918
       9 -> 21         0.19966
      10 -> 26         0.11840
      12 -> 26         0.36702
      13 -> 37         0.18426

 Excited State  75:      Singlet-A'    15.3299 eV   80.88 nm  f=0.0297  <S**2>=0.000
       7 -> 19         0.11193
       8 -> 17        -0.18238
       8 -> 18         0.11814
       8 -> 19         0.30853
       9 -> 20         0.16040
       9 -> 21        -0.10936
      10 -> 23        -0.10873
      10 -> 26        -0.13177
      13 -> 36        -0.28650
      13 -> 37         0.33786

 Excited State  76:      Singlet-A"    15.4225 eV   80.39 nm  f=0.1819  <S**2>=0.000
       7 -> 15         0.16372
       8 -> 20        -0.17731
       9 -> 19        -0.22283
       9 -> 22         0.32563
      11 -> 25        -0.23277
      11 -> 26         0.37512
      13 -> 35         0.12810

 Excited State  77:      Singlet-A'    15.4552 eV   80.22 nm  f=0.1268  <S**2>=0.000
       7 -> 16        -0.12632
       9 -> 20         0.16415
       9 -> 21         0.36208
      10 -> 21         0.12393
      11 -> 27         0.35345
      12 -> 25         0.14877
      12 -> 26        -0.18800
      13 -> 38        -0.12049

 The electronic state is 1-A'.
 Alpha  occ. eigenvalues --  -14.42953 -10.31162 -10.31161  -0.99378  -0.79178
 Alpha  occ. eigenvalues --   -0.71619  -0.57960  -0.53179  -0.52380  -0.47036
 Alpha  occ. eigenvalues --   -0.44849  -0.44564  -0.30486
 Alpha virt. eigenvalues --    0.09162   0.11944   0.13729   0.16976   0.17471
 Alpha virt. eigenvalues --    0.19920   0.20122   0.21610   0.21857   0.24057
 Alpha virt. eigenvalues --    0.24853   0.26127   0.28070   0.29628   0.32652

 Mulliken charges:
               1
     1  C    0.599645
     2  N   -0.727044
     3  C    0.599645
     4  H   -0.162039
     5  H    0.014972
     6  H   -0.066831
     7  H   -0.044449
     8  H   -0.066831
     9  H    0.014972
    10  H   -0.162039
 Sum of Mulliken charges =   0.00000

 Dipole moment (field-independent basis, Debye):
    X=              0.9461    Y=             -0.3938    Z=             -0.0000  Tot=              1.0248
 Quadrupole moment (field-independent basis, Debye-Ang):
   XX=            -20.8626   YY=            -21.4068   ZZ=            -19.7701
   XY=              2.1046   XZ=              0.0000   YZ=             -0.0000

 Normal termination of Gaussian 16 at Mon Mar 21 16:10:16 2022.
