 Gaussian 16, Revision C.01,
 Gaussian 16:  EM64L-G16RevC.01  3-Jul-2019

 ----------------------------------------------------------------------
 #P TD(Nstates=10000) wB97XD/Gen SCF(maxcycles=100) Int(Grid=ultrafine)
 ----------------------------------------------------------------------

 ---------------------
 xGDB7_00001_tier4.com
 ---------------------
 Symbolic Z-matrix:
 Charge =  0 Multiplicity = 1

                         Standard orientation:
 ---------------------------------------------------------------------
 Center     Atomic      Atomic             Coordinates (Angstroms)
 Number     Number       Type             X           Y           Z
 ---------------------------------------------------------------------
      1          9           0        0.000000    1.098813   -0.289120
      2          6           0       -0.000000   -0.000000    0.499944
      3          9           0       -0.000000   -1.098813   -0.289120
      4          1           0       -0.911346    0.000000    1.102246
      5          1           0        0.911346   -0.000000    1.102246
 ---------------------------------------------------------------------

 SCF Done:  E(RwB97XD) =  -238.752970857     A.U. after   11 cycles

 Excitation energies and oscillator strengths:

 Excited State   1:      Singlet-B1     9.7235 eV  127.51 nm  f=0.0330  <S**2>=0.000
      13 -> 14         0.69277
 This state for optimization and/or second-order correction.
 Total Energy, E(TD-HF/TD-DFT) =  -238.395638096
 Copying the excited state density for this state as the 1-particle RhoCI density.

 Excited State   2:      Singlet-A2    10.4117 eV  119.08 nm  f=0.0000  <S**2>=0.000
      13 -> 15         0.66887
      13 -> 19        -0.17879

 Excited State   3:      Singlet-B1    11.0292 eV  112.41 nm  f=0.0198  <S**2>=0.000
      13 -> 16         0.65618
      13 -> 18        -0.22015

 Excited State   4:      Singlet-A1    11.3765 eV  108.98 nm  f=0.0832  <S**2>=0.000
      13 -> 17         0.69632

 Excited State   5:      Singlet-B2    11.6024 eV  106.86 nm  f=0.0294  <S**2>=0.000
      11 -> 15        -0.18710
      12 -> 14         0.65973
      12 -> 16         0.13024

 Excited State   6:      Singlet-A1    11.8492 eV  104.64 nm  f=0.0077  <S**2>=0.000
      11 -> 14         0.63144
      12 -> 15        -0.28320

 Excited State   7:      Singlet-A2    12.1893 eV  101.72 nm  f=0.0000  <S**2>=0.000
      10 -> 14         0.65744
      10 -> 16         0.15070
      13 -> 19        -0.14707

 Excited State   8:      Singlet-A1    12.4360 eV   99.70 nm  f=0.0210  <S**2>=0.000
      11 -> 14         0.28113
      12 -> 15         0.59559
      12 -> 19        -0.14346
      12 -> 23        -0.12147
      13 -> 22         0.11904

 Excited State   9:      Singlet-B1    12.6080 eV   98.34 nm  f=0.1196  <S**2>=0.000
      10 -> 15        -0.10771
      13 -> 16         0.22281
      13 -> 18         0.64517

 Excited State  10:      Singlet-B2    12.6880 eV   97.72 nm  f=0.0364  <S**2>=0.000
      11 -> 15         0.48849
      12 -> 14         0.23090
      12 -> 16        -0.41583

 Excited State  11:      Singlet-B1    12.8514 eV   96.48 nm  f=0.0248  <S**2>=0.000
      10 -> 15         0.63759
      10 -> 19        -0.14145
      13 -> 21        -0.21684

 Excited State  12:      Singlet-A1    13.0610 eV   94.93 nm  f=0.1384  <S**2>=0.000
      11 -> 16         0.66275
      11 -> 18        -0.17294

 Excited State  13:      Singlet-A2    13.1551 eV   94.25 nm  f=0.0000  <S**2>=0.000
      12 -> 17         0.69631

 Excited State  14:      Singlet-B2    13.2477 eV   93.59 nm  f=0.0859  <S**2>=0.000
      10 -> 17         0.21258
      11 -> 15         0.32852
      12 -> 16         0.41467
      13 -> 20        -0.38230

 Excited State  15:      Singlet-A2    13.2560 eV   93.53 nm  f=0.0000  <S**2>=0.000
      10 -> 14         0.18900
      10 -> 16        -0.30312
      13 -> 15         0.16625
      13 -> 19         0.56556

 Excited State  16:      Singlet-B1    13.3083 eV   93.16 nm  f=0.0519  <S**2>=0.000
      11 -> 17         0.69424

 Excited State  17:      Singlet-A2    13.4238 eV   92.36 nm  f=0.0000  <S**2>=0.000
      10 -> 16         0.54498
      10 -> 18        -0.19619
      10 -> 25        -0.11323
      13 -> 15         0.12116
      13 -> 19         0.21379
      13 -> 23         0.26477

 Excited State  18:      Singlet-B2    13.5333 eV   91.61 nm  f=0.0093  <S**2>=0.000
      10 -> 17         0.44568
      11 -> 15        -0.26281
      12 -> 16        -0.31619
      13 -> 20        -0.34376

 Excited State  19:      Singlet-B1    13.7841 eV   89.95 nm  f=0.0035  <S**2>=0.000
      10 -> 15         0.18318
      10 -> 19        -0.12094
      13 -> 21         0.65344

 Excited State  20:      Singlet-A1    13.9142 eV   89.11 nm  f=0.0604  <S**2>=0.000
      11 -> 18         0.11116
      13 -> 22         0.66985

 Excited State  21:      Singlet-B2    14.0561 eV   88.21 nm  f=0.0502  <S**2>=0.000
      10 -> 17         0.47980
      12 -> 16         0.12699
      12 -> 18         0.20091
      13 -> 20         0.43595

 Excited State  22:      Singlet-B2    14.1196 eV   87.81 nm  f=0.0123  <S**2>=0.000
      10 -> 17        -0.13367
      11 -> 19        -0.17465
      12 -> 18         0.61605
      13 -> 20        -0.16637

 Excited State  23:      Singlet-A1    14.3459 eV   86.42 nm  f=0.0076  <S**2>=0.000
      11 -> 16         0.13171
      11 -> 18         0.56156
      12 -> 19        -0.35767

 Excited State  24:      Singlet-A2    14.3690 eV   86.29 nm  f=0.0000  <S**2>=0.000
      10 -> 16        -0.14399
      10 -> 18         0.21464
      13 -> 19        -0.18337
      13 -> 23         0.60394

 Excited State  25:      Singlet-A2    14.8166 eV   83.68 nm  f=0.0000  <S**2>=0.000
      10 -> 16         0.22466
      10 -> 18         0.59391
      10 -> 21        -0.12769
      10 -> 24         0.11987
      13 -> 19         0.18616
      13 -> 23        -0.12559

 Excited State  26:      Singlet-B1    14.9026 eV   83.20 nm  f=0.0106  <S**2>=0.000
       7 -> 14        -0.15032
      10 -> 19        -0.16334
      10 -> 23        -0.13852
      11 -> 22         0.10670
      13 -> 18        -0.11052
      13 -> 24         0.48636
      13 -> 25         0.37190

 Excited State  27:      Singlet-A1    14.9617 eV   82.87 nm  f=0.0159  <S**2>=0.000
       8 -> 14         0.11630
      11 -> 16         0.13221
      11 -> 18         0.32776
      11 -> 21        -0.13508
      12 -> 15         0.15702
      12 -> 19         0.51340
      12 -> 23         0.13886

 Excited State  28:      Singlet-B2    15.0253 eV   82.52 nm  f=0.1448  <S**2>=0.000
       8 -> 15         0.11986
      11 -> 19        -0.37824
      11 -> 23        -0.15389
      12 -> 21         0.54826

 Excited State  29:      Singlet-A2    15.1229 eV   81.98 nm  f=0.0000  <S**2>=0.000
      11 -> 20        -0.29823
      12 -> 22         0.62773

 Excited State  30:      Singlet-B1    15.1340 eV   81.92 nm  f=0.0198  <S**2>=0.000
       8 -> 17         0.12571
      11 -> 22        -0.42434
      12 -> 20         0.53415

 Excited State  31:      Singlet-B2    15.3306 eV   80.87 nm  f=0.0481  <S**2>=0.000
       8 -> 15         0.14375
       9 -> 14         0.46790
       9 -> 16         0.15399
      10 -> 22        -0.12467
      11 -> 19         0.28654
      12 -> 18         0.15709
      12 -> 21         0.27255

 Excited State  32:      Singlet-B1    15.3653 eV   80.69 nm  f=0.0235  <S**2>=0.000
       7 -> 14         0.38284
       7 -> 16         0.11234
      10 -> 19         0.45400
      13 -> 24         0.30065

 Excited State  33:      Singlet-A1    15.5933 eV   79.51 nm  f=0.0099  <S**2>=0.000
       8 -> 14         0.46176
      11 -> 21         0.50044

 Excited State  34:      Singlet-B2    15.6189 eV   79.38 nm  f=0.0110  <S**2>=0.000
       8 -> 15        -0.10101
       9 -> 14         0.47490
      10 -> 22         0.13799
      11 -> 15        -0.12703
      11 -> 19        -0.37366
      12 -> 18        -0.11248
      12 -> 21        -0.20824

 Excited State  35:      Singlet-B1    15.6243 eV   79.35 nm  f=0.1693  <S**2>=0.000
       7 -> 14         0.51092
      10 -> 15        -0.11239
      10 -> 19        -0.34509
      11 -> 22         0.15821
      12 -> 20         0.16397
      13 -> 24        -0.10509
      13 -> 25         0.13210

 Excited State  36:      Singlet-A2    15.6722 eV   79.11 nm  f=0.0000  <S**2>=0.000
       7 -> 15         0.30867
      10 -> 18         0.10347
      10 -> 21         0.43785
      11 -> 20         0.35420
      12 -> 22         0.20202
      13 -> 29         0.10987

 Excited State  37:      Singlet-A1    15.6942 eV   79.00 nm  f=0.0470  <S**2>=0.000
       8 -> 14         0.43618
       9 -> 15        -0.12823
      10 -> 20        -0.24626
      11 -> 21        -0.34016
      12 -> 19        -0.20311
      12 -> 23         0.18811

 Excited State  38:      Singlet-B1    15.7261 eV   78.84 nm  f=0.0012  <S**2>=0.000
       7 -> 14        -0.19771
      11 -> 22         0.50708
      12 -> 20         0.39693

 Excited State  39:      Singlet-A2    15.7843 eV   78.55 nm  f=0.0000  <S**2>=0.000
       7 -> 15        -0.19433
      10 -> 21        -0.34478
      11 -> 20         0.50580
      12 -> 22         0.22027

 Excited State  40:      Singlet-A1    16.0238 eV   77.38 nm  f=0.0036  <S**2>=0.000
       7 -> 17        -0.10559
       8 -> 14        -0.20227
       8 -> 16        -0.18614
       8 -> 18         0.10420
       9 -> 15         0.21221
      10 -> 20        -0.34565
      11 -> 21         0.17729
      11 -> 24        -0.12387
      12 -> 23         0.39154

 Excited State  41:      Singlet-B2    16.0578 eV   77.21 nm  f=0.0446  <S**2>=0.000
       8 -> 15         0.10401
       9 -> 16         0.18481
      10 -> 22         0.59795
      11 -> 19         0.13013
      12 -> 25        -0.10247
      13 -> 26         0.12333

 Excited State  42:      Singlet-B2    16.1765 eV   76.64 nm  f=0.0037  <S**2>=0.000
       8 -> 15         0.28679
       9 -> 16        -0.15997
      11 -> 19        -0.15122
      11 -> 23         0.54740
      12 -> 24        -0.14938

 Excited State  43:      Singlet-A1    16.2318 eV   76.38 nm  f=0.0031  <S**2>=0.000
       9 -> 15         0.25295
       9 -> 19        -0.11313
      10 -> 20         0.49699
      11 -> 21        -0.15992
      12 -> 23         0.34112

 Excited State  44:      Singlet-B1    16.3070 eV   76.03 nm  f=0.0778  <S**2>=0.000
      10 -> 19         0.19693
      10 -> 23         0.23664
      13 -> 24        -0.27323
      13 -> 25         0.54385

 Excited State  45:      Singlet-A2    16.3293 eV   75.93 nm  f=0.0000  <S**2>=0.000
       7 -> 15         0.54713
       7 -> 19        -0.19922
       7 -> 23        -0.12261
      10 -> 21        -0.34518

 Excited State  46:      Singlet-B2    16.3580 eV   75.79 nm  f=0.0942  <S**2>=0.000
       8 -> 15         0.54557
       8 -> 19        -0.13910
       9 -> 16         0.13109
      11 -> 23        -0.19769
      12 -> 18        -0.10208
      12 -> 21        -0.18357
      12 -> 24         0.16726
      13 -> 26        -0.11965

 Excited State  47:      Singlet-A1    16.4942 eV   75.17 nm  f=0.1102  <S**2>=0.000
       7 -> 17        -0.14639
       8 -> 14         0.10323
       9 -> 15         0.53692
      10 -> 20        -0.11291
      11 -> 21        -0.12989
      12 -> 23        -0.28246
      13 -> 27        -0.10211

 Excited State  48:      Singlet-B1    16.7158 eV   74.17 nm  f=0.0295  <S**2>=0.000
       7 -> 16        -0.29412
       8 -> 17         0.10849
      10 -> 19        -0.15223
      10 -> 23         0.52577
      13 -> 24         0.22306
      13 -> 25        -0.11642

 Excited State  49:      Singlet-A1    16.7970 eV   73.81 nm  f=0.1011  <S**2>=0.000
       8 -> 16         0.57571
       8 -> 18        -0.19130
      11 -> 24         0.10082
      11 -> 25         0.15901
      12 -> 23         0.20617

 Excited State  50:      Singlet-B2    16.8529 eV   73.57 nm  f=0.0343  <S**2>=0.000
       9 -> 14        -0.15434
       9 -> 16         0.56605
       9 -> 18        -0.11144
      10 -> 22        -0.11009
      11 -> 23         0.22335
      12 -> 25         0.16125
      13 -> 26         0.10540

 Excited State  51:      Singlet-B1    16.9648 eV   73.08 nm  f=0.0274  <S**2>=0.000
       7 -> 16        -0.16761
       8 -> 17         0.61980
      10 -> 23        -0.20123
      12 -> 20        -0.10253

 Excited State  52:      Singlet-A2    17.0039 eV   72.92 nm  f=0.0000  <S**2>=0.000
       9 -> 17         0.68806
      11 -> 20        -0.10697

 Excited State  53:      Singlet-A1    17.0643 eV   72.66 nm  f=0.0006  <S**2>=0.000
       7 -> 17         0.40048
       8 -> 16        -0.14515
      10 -> 20        -0.11514
      11 -> 24         0.39993
      11 -> 25         0.25962
      13 -> 27         0.17407

 Excited State  54:      Singlet-B2    17.0976 eV   72.52 nm  f=0.1249  <S**2>=0.000
       9 -> 16        -0.10551
      12 -> 24         0.14552
      13 -> 26         0.64734

 Excited State  55:      Singlet-B1    17.1630 eV   72.24 nm  f=0.0471  <S**2>=0.000
       7 -> 16         0.54239
       7 -> 18        -0.14768
       8 -> 17         0.23720
      10 -> 19        -0.12886
      10 -> 23         0.20407
      13 -> 28         0.22170

 Excited State  56:      Singlet-B1    17.4235 eV   71.16 nm  f=0.0266  <S**2>=0.000
       7 -> 16        -0.13215
       8 -> 17        -0.11902
      10 -> 23        -0.16695
      13 -> 28         0.64748

 Excited State  57:      Singlet-A1    17.4440 eV   71.08 nm  f=0.0192  <S**2>=0.000
       7 -> 17         0.50509
       8 -> 16         0.16215
       9 -> 15         0.10154
      11 -> 24        -0.23028
      11 -> 25        -0.17416
      13 -> 27        -0.25330
      13 -> 30         0.15415

 Excited State  58:      Singlet-B2    17.4539 eV   71.04 nm  f=0.0530  <S**2>=0.000
       9 -> 16        -0.15520
       9 -> 18        -0.23609
      10 -> 22         0.12955
      11 -> 23         0.16617
      12 -> 21         0.13298
      12 -> 24         0.55193
      13 -> 26        -0.10188

 Excited State  59:      Singlet-A1    17.5341 eV   70.71 nm  f=0.0459  <S**2>=0.000
       9 -> 15         0.12486
      11 -> 24        -0.30793
      13 -> 27         0.58392

 Excited State  60:      Singlet-A2    17.5822 eV   70.52 nm  f=0.0000  <S**2>=0.000
      10 -> 18        -0.12028
      10 -> 24         0.50404
      10 -> 25         0.28394
      13 -> 29         0.34019

 Excited State  61:      Singlet-A2    17.6031 eV   70.43 nm  f=0.0000  <S**2>=0.000
      10 -> 21        -0.17236
      10 -> 24        -0.24410
      10 -> 25        -0.18710
      13 -> 23        -0.14063
      13 -> 29         0.56993

 Excited State  62:      Singlet-B2    17.9024 eV   69.26 nm  f=0.0292  <S**2>=0.000
       9 -> 16        -0.15231
       9 -> 18        -0.21980
      11 -> 19         0.13837
      12 -> 24        -0.24164
      12 -> 25         0.55268

 Excited State  63:      Singlet-A1    18.0652 eV   68.63 nm  f=0.0377  <S**2>=0.000
       8 -> 16        -0.12666
       8 -> 18        -0.19190
      11 -> 24        -0.27770
      11 -> 25         0.49168
      13 -> 27        -0.12881
      13 -> 30         0.27894

 Excited State  64:      Singlet-A2    18.3584 eV   67.54 nm  f=0.0000  <S**2>=0.000
       7 -> 19         0.18359
      10 -> 24        -0.36927
      10 -> 25         0.54885

 Excited State  65:      Singlet-A1    18.3631 eV   67.52 nm  f=0.0514  <S**2>=0.000
       8 -> 16         0.16322
       8 -> 18         0.58872
       8 -> 21        -0.10016
       9 -> 15        -0.10770
       9 -> 23        -0.12681
      11 -> 25         0.20560

 Excited State  66:      Singlet-B1    18.3750 eV   67.47 nm  f=0.0600  <S**2>=0.000
       7 -> 16         0.19585
       7 -> 18         0.62675
       7 -> 24         0.10114

 Excited State  67:      Singlet-B2    18.4423 eV   67.23 nm  f=0.0877  <S**2>=0.000
       9 -> 18         0.56355
       9 -> 21         0.12847
      10 -> 22         0.12729
      11 -> 23         0.11837
      11 -> 29        -0.16578
      12 -> 24         0.10214
      12 -> 25         0.19886

 Excited State  68:      Singlet-A1    18.5203 eV   66.95 nm  f=0.0144  <S**2>=0.000
       7 -> 22        -0.12386
       9 -> 19         0.11410
      11 -> 24         0.20970
      11 -> 25        -0.22245
      13 -> 30         0.55663

 Excited State  69:      Singlet-B1    18.8752 eV   65.69 nm  f=0.0366  <S**2>=0.000
       7 -> 18        -0.10332
       8 -> 22        -0.32971
       9 -> 20        -0.19790
      12 -> 26         0.56715

 Excited State  70:      Singlet-B2    18.9080 eV   65.57 nm  f=0.0791  <S**2>=0.000
       8 -> 15         0.12774
       8 -> 19         0.43958
       8 -> 23         0.18518
       9 -> 21         0.34482
      11 -> 29        -0.13342
      12 -> 25        -0.20288
      12 -> 28        -0.22140

 Excited State  71:      Singlet-A2    18.9387 eV   65.47 nm  f=0.0000  <S**2>=0.000
       9 -> 22        -0.46880
      11 -> 26         0.49939
      12 -> 27        -0.11347

 Excited State  72:      Singlet-A2    18.9920 eV   65.28 nm  f=0.0000  <S**2>=0.000
       8 -> 20         0.40398
       9 -> 22         0.35009
      11 -> 26         0.21487
      12 -> 27        -0.38292

 Excited State  73:      Singlet-B1    19.0759 eV   65.00 nm  f=0.0001  <S**2>=0.000
       8 -> 22         0.25932
       9 -> 20         0.48736
      11 -> 27        -0.25510
      12 -> 26         0.33115

 Excited State  74:      Singlet-A1    19.1026 eV   64.90 nm  f=0.0002  <S**2>=0.000
       8 -> 18        -0.13674
       8 -> 21        -0.44330
      12 -> 29         0.46730

 Excited State  75:      Singlet-A2    19.1816 eV   64.64 nm  f=0.0000  <S**2>=0.000
       7 -> 15         0.20567
       7 -> 19         0.54001
       7 -> 23         0.24123
      10 -> 25        -0.21327
      10 -> 28        -0.12408
      11 -> 26        -0.11744

 Excited State  76:      Singlet-A1    19.2102 eV   64.54 nm  f=0.0929  <S**2>=0.000
       7 -> 22        -0.28828
       9 -> 19         0.54186
      13 -> 30        -0.19117
      13 -> 31        -0.15647

 Excited State  77:      Singlet-B2    19.2948 eV   64.26 nm  f=0.0040  <S**2>=0.000
       7 -> 20         0.13698
       9 -> 21         0.35576
      12 -> 28         0.56571

 Excited State  78:      Singlet-B1    19.3317 eV   64.14 nm  f=0.0077  <S**2>=0.000
       7 -> 21         0.45962
       8 -> 22        -0.32121
       9 -> 20         0.17017
      10 -> 29        -0.22566
      11 -> 27        -0.18908
      12 -> 26        -0.18245

 Excited State  79:      Singlet-A1    19.3651 eV   64.02 nm  f=0.0814  <S**2>=0.000
       7 -> 22         0.50748
       9 -> 19         0.25467
      10 -> 26        -0.34619
      13 -> 30         0.10798

 Excited State  80:      Singlet-A2    19.3765 eV   63.99 nm  f=0.0000  <S**2>=0.000
       9 -> 22         0.29445
      11 -> 26         0.37877
      12 -> 27         0.48847

 Excited State  81:      Singlet-B2    19.4144 eV   63.86 nm  f=0.0399  <S**2>=0.000
       7 -> 20         0.11965
       8 -> 15         0.13465
       8 -> 19         0.42162
       9 -> 21        -0.41547
      10 -> 27        -0.15124
      12 -> 28         0.22871

 Excited State  82:      Singlet-B2    19.4235 eV   63.83 nm  f=0.0699  <S**2>=0.000
       7 -> 20         0.61722
       8 -> 19        -0.13901
      10 -> 27        -0.23325
      12 -> 28        -0.15109

 Excited State  83:      Singlet-B1    19.4244 eV   63.83 nm  f=0.0669  <S**2>=0.000
       7 -> 18         0.10081
       7 -> 21         0.39804
       8 -> 22         0.41377
       9 -> 20        -0.30725
      10 -> 29        -0.15471
      12 -> 26         0.12636

 Excited State  84:      Singlet-A1    19.4638 eV   63.70 nm  f=0.0115  <S**2>=0.000
       6 -> 14         0.12896
       8 -> 21         0.17365
       9 -> 19         0.10259
       9 -> 23        -0.10659
      10 -> 26         0.20133
      11 -> 28         0.58462
      13 -> 31         0.15702

 Excited State  85:      Singlet-A2    19.5696 eV   63.36 nm  f=0.0000  <S**2>=0.000
       8 -> 20         0.56340
       9 -> 22        -0.21000
      11 -> 26        -0.17397
      12 -> 27         0.29065

 Excited State  86:      Singlet-B1    19.6179 eV   63.20 nm  f=0.0102  <S**2>=0.000
       7 -> 21         0.11145
       9 -> 20         0.28425
      11 -> 27         0.60088

 Excited State  87:      Singlet-A1    19.6830 eV   62.99 nm  f=0.0192  <S**2>=0.000
       7 -> 22         0.16398
       8 -> 21         0.17325
       9 -> 19         0.13611
      10 -> 26         0.48041
      11 -> 28        -0.29321
      12 -> 29         0.22895
      13 -> 31         0.14456

 Excited State  88:      Singlet-A1    19.7307 eV   62.84 nm  f=0.0044  <S**2>=0.000
       7 -> 22        -0.10090
       8 -> 21         0.40284
       9 -> 19        -0.16336
       9 -> 23         0.17239
      10 -> 26        -0.18517
      12 -> 29         0.43017
      13 -> 31        -0.13978

 Excited State  89:      Singlet-A1    19.7940 eV   62.64 nm  f=0.0337  <S**2>=0.000
       7 -> 22        -0.23285
      10 -> 26        -0.19245
      13 -> 31         0.61156

 Excited State  90:      Singlet-A2    19.8222 eV   62.55 nm  f=0.0000  <S**2>=0.000
       7 -> 19         0.23710
       7 -> 23        -0.19596
      10 -> 24         0.12718
      10 -> 28         0.58962
      13 -> 35        -0.12109

 Excited State  91:      Singlet-B2    19.8334 eV   62.51 nm  f=0.0112  <S**2>=0.000
       7 -> 20        -0.14922
       9 -> 21         0.10654
      10 -> 27        -0.35947
      11 -> 29         0.53119

 Excited State  92:      Singlet-B1    19.8893 eV   62.34 nm  f=0.0035  <S**2>=0.000
      13 -> 32         0.66579
      13 -> 34         0.13612

 Excited State  93:      Singlet-A1    19.9821 eV   62.05 nm  f=0.0028  <S**2>=0.000
       6 -> 14         0.62884
       9 -> 23         0.21722

 Excited State  94:      Singlet-B2    19.9848 eV   62.04 nm  f=0.0136  <S**2>=0.000

 The electronic state is 1-A1.
 Alpha  occ. eigenvalues --  -24.84275 -24.84273 -10.46883  -1.35518  -1.29464
 Alpha  occ. eigenvalues --   -0.80687  -0.65403  -0.65127  -0.64845  -0.52927
 Alpha  occ. eigenvalues --   -0.51561  -0.50698  -0.44255
 Alpha virt. eigenvalues --    0.08981   0.13726   0.14813   0.14852   0.19816
 Alpha virt. eigenvalues --    0.21616   0.22451   0.22881   0.23565   0.26952
 Alpha virt. eigenvalues --    0.31545   0.32939   0.36389   0.37774   0.37842

 Mulliken charges:
               1
     1  F   -0.417239
     2  C    1.078137
     3  F   -0.417239
     4  H   -0.121830
     5  H   -0.121830
 Sum of Mulliken charges =   0.00000

 Dipole moment (field-independent basis, Debye):
    X=              0.0000    Y=             -0.0000    Z=              1.9888  Tot=              1.9888
 Quadrupole moment (field-independent basis, Debye-Ang):
   XX=            -15.3337   YY=            -19.2078   ZZ=            -15.3758
   XY=             -0.0000   XZ=             -0.0000   YZ=             -0.0000

 Normal termination of Gaussian 16 at Mon Mar 21 16:08:12 2022.
