 Gaussian 16, Revision C.01,
 Gaussian 16:  EM64L-G16RevC.01  3-Jul-2019

 ----------------------------------------------------------------------
 #P TD(Nstates=10000) wB97XD/Gen SCF(maxcycles=100) Int(Grid=ultrafine)
 ----------------------------------------------------------------------

 ---------------------
 xGDB7_00001_tier4.com
 ---------------------
 Symbolic Z-matrix:
 Charge =  0 Multiplicity = 1

                         Standard orientation:
 ---------------------------------------------------------------------
 Center     Atomic      Atomic             Coordinates (Angstroms)
 Number     Number       Type             X           Y           Z
 ---------------------------------------------------------------------
      1          8           0       -1.028621   -0.395177   -0.000000
      2          7           0       -0.000000    0.526228   -0.000000
      3          6           0        1.132746   -0.030907    0.000000
      4          1           0       -1.816572    0.151791   -0.000000
      5          1           0        1.994262    0.623439    0.000000
      6          1           0        1.254802   -1.111965    0.000000
 ---------------------------------------------------------------------

 SCF Done:  E(RwB97XD) =  -169.641168532     A.U. after   14 cycles

 Excitation energies and oscillator strengths:

 Excited State   1:      Singlet-A"     5.9712 eV  207.64 nm  f=0.0010  <S**2>=0.000
      11 -> 13         0.70387
 This state for optimization and/or second-order correction.
 Total Energy, E(TD-HF/TD-DFT) =  -169.421729914
 Copying the excited state density for this state as the 1-particle RhoCI density.

 Excited State   2:      Singlet-A'     7.0267 eV  176.45 nm  f=0.1868  <S**2>=0.000
      12 -> 13         0.68718

 Excited State   3:      Singlet-A"     7.5271 eV  164.72 nm  f=0.0015  <S**2>=0.000
      12 -> 14         0.67837
      12 -> 15        -0.13352

 Excited State   4:      Singlet-A'     7.9720 eV  155.53 nm  f=0.0230  <S**2>=0.000
      11 -> 14         0.67801
      11 -> 15        -0.13347

 Excited State   5:      Singlet-A"     8.4682 eV  146.41 nm  f=0.0222  <S**2>=0.000
      12 -> 14         0.14026
      12 -> 15         0.64987
      12 -> 17         0.19159

 Excited State   6:      Singlet-A'     9.0336 eV  137.25 nm  f=0.0276  <S**2>=0.000
      11 -> 14         0.13540
      11 -> 15         0.67093

 Excited State   7:      Singlet-A"     9.2214 eV  134.45 nm  f=0.0062  <S**2>=0.000
      12 -> 15        -0.20241
      12 -> 17         0.61215
      12 -> 20         0.17121
      12 -> 21         0.12587
      12 -> 25         0.14015

 Excited State   8:      Singlet-A"     9.6186 eV  128.90 nm  f=0.0040  <S**2>=0.000
      10 -> 13         0.64698
      12 -> 16         0.24459

 Excited State   9:      Singlet-A"     9.7502 eV  127.16 nm  f=0.0148  <S**2>=0.000
      10 -> 13        -0.24765
      12 -> 16         0.64627

 Excited State  10:      Singlet-A'     9.7793 eV  126.78 nm  f=0.1144  <S**2>=0.000
      11 -> 16        -0.18279
      11 -> 17         0.58679
      11 -> 20         0.13408
      11 -> 21         0.12803
      11 -> 25         0.13041
      12 -> 18         0.21540

 Excited State  11:      Singlet-A'    10.2228 eV  121.28 nm  f=0.1101  <S**2>=0.000
      11 -> 16         0.60538
      12 -> 18         0.32456

 Excited State  12:      Singlet-A'    10.4265 eV  118.91 nm  f=0.0923  <S**2>=0.000
      11 -> 16        -0.25668
      11 -> 17        -0.27333
      12 -> 18         0.56694

 Excited State  13:      Singlet-A"    10.5712 eV  117.29 nm  f=0.0120  <S**2>=0.000
      11 -> 18         0.59194
      12 -> 17        -0.10490
      12 -> 19        -0.10588
      12 -> 20         0.33886

 Excited State  14:      Singlet-A"    10.6312 eV  116.62 nm  f=0.0448  <S**2>=0.000
      11 -> 18        -0.37049
      12 -> 17        -0.11633
      12 -> 19        -0.25059
      12 -> 20         0.50635

 Excited State  15:      Singlet-A"    10.7866 eV  114.94 nm  f=0.0025  <S**2>=0.000
      12 -> 17        -0.11685
      12 -> 19         0.62698
      12 -> 20         0.24940

 Excited State  16:      Singlet-A'    10.8492 eV  114.28 nm  f=0.0963  <S**2>=0.000
       9 -> 13         0.66412

 Excited State  17:      Singlet-A'    11.1429 eV  111.27 nm  f=0.0059  <S**2>=0.000
      11 -> 17        -0.16132
      11 -> 19        -0.18006
      11 -> 20         0.64658

 Excited State  18:      Singlet-A"    11.1605 eV  111.09 nm  f=0.0010  <S**2>=0.000
       8 -> 13         0.64807
      12 -> 21         0.18684

 Excited State  19:      Singlet-A'    11.2077 eV  110.62 nm  f=0.0242  <S**2>=0.000
      11 -> 16         0.10298
      11 -> 19         0.65087
      11 -> 20         0.17132

 Excited State  20:      Singlet-A"    11.4715 eV  108.08 nm  f=0.0025  <S**2>=0.000
       8 -> 13        -0.20545
       9 -> 14         0.15917
      12 -> 17        -0.12719
      12 -> 21         0.61779

 Excited State  21:      Singlet-A"    11.7273 eV  105.72 nm  f=0.0268  <S**2>=0.000
       9 -> 14         0.62754
       9 -> 15        -0.17267
       9 -> 21        -0.10442
      12 -> 21        -0.16728

 Excited State  22:      Singlet-A'    11.9887 eV  103.42 nm  f=0.1358  <S**2>=0.000
       8 -> 14         0.15342
       8 -> 15        -0.10002
      10 -> 14        -0.38525
      11 -> 21         0.52888

 Excited State  23:      Singlet-A'    12.0498 eV  102.89 nm  f=0.1189  <S**2>=0.000
      10 -> 14         0.53036
      10 -> 15         0.16255
      11 -> 21         0.37960

 Excited State  24:      Singlet-A'    12.4460 eV   99.62 nm  f=0.1206  <S**2>=0.000
       8 -> 14         0.17413
      10 -> 15         0.63312
      11 -> 21        -0.12209

 Excited State  25:      Singlet-A'    12.6701 eV   97.86 nm  f=0.0729  <S**2>=0.000
      12 -> 22         0.66546
      12 -> 23        -0.14783

 Excited State  26:      Singlet-A"    12.7506 eV   97.24 nm  f=0.0223  <S**2>=0.000
       7 -> 13         0.19461
       9 -> 14         0.12485
       9 -> 15         0.38953
       9 -> 17         0.36400
      12 -> 24        -0.11415
      12 -> 25         0.30996

 Excited State  27:      Singlet-A"    12.9101 eV   96.04 nm  f=0.0000  <S**2>=0.000
       7 -> 13         0.48768
       9 -> 15        -0.21228
      11 -> 22         0.38362
      12 -> 24        -0.18966

 Excited State  28:      Singlet-A"    13.0168 eV   95.25 nm  f=0.0204  <S**2>=0.000
       7 -> 13        -0.16610
       9 -> 14         0.10862
       9 -> 15         0.31557
      11 -> 22         0.48706
      12 -> 24         0.20732
      12 -> 25        -0.18489

 Excited State  29:      Singlet-A'    13.0569 eV   94.96 nm  f=0.1623  <S**2>=0.000
       8 -> 14         0.37931
      10 -> 14         0.10725
      10 -> 16        -0.17825
      10 -> 17        -0.24489
      11 -> 21        -0.10028
      11 -> 25         0.11642
      12 -> 23         0.42260

 Excited State  30:      Singlet-A"    13.0923 eV   94.70 nm  f=0.0211  <S**2>=0.000
       7 -> 13         0.38855
       9 -> 15         0.23930
      11 -> 22        -0.27207
      12 -> 24         0.18618
      12 -> 25        -0.35923

 Excited State  31:      Singlet-A'    13.2707 eV   93.43 nm  f=0.0248  <S**2>=0.000
       8 -> 14         0.45425
       8 -> 15        -0.14142
      10 -> 14         0.10206
      10 -> 17         0.10852
      12 -> 22        -0.14090
      12 -> 23        -0.42583

 Excited State  32:      Singlet-A"    13.3123 eV   93.14 nm  f=0.0662  <S**2>=0.000
       7 -> 13         0.12560
       9 -> 15        -0.17622
      11 -> 23         0.17904
      12 -> 24         0.54878
      12 -> 25         0.27726

 Excited State  33:      Singlet-A"    13.4630 eV   92.09 nm  f=0.0226  <S**2>=0.000
      10 -> 18         0.10444
      11 -> 22         0.12915
      11 -> 23         0.64460
      12 -> 24        -0.15769

 Excited State  34:      Singlet-A'    13.5536 eV   91.48 nm  f=0.0263  <S**2>=0.000
      10 -> 17        -0.34328
      10 -> 19        -0.13529
      11 -> 24         0.38481
      11 -> 25         0.33736
      12 -> 23        -0.17076

 Excited State  35:      Singlet-A"    13.6070 eV   91.12 nm  f=0.0006  <S**2>=0.000
       9 -> 15        -0.19990
       9 -> 16        -0.14574
       9 -> 17         0.48815
       9 -> 20         0.16606
       9 -> 21         0.13571
       9 -> 25         0.15025
      12 -> 24         0.10685
      12 -> 25        -0.30966

 Excited State  36:      Singlet-A'    13.7420 eV   90.22 nm  f=0.0181  <S**2>=0.000
       8 -> 14         0.16157
      11 -> 24         0.49168
      11 -> 25        -0.42306

 Excited State  37:      Singlet-A'    13.9232 eV   89.05 nm  f=0.0045  <S**2>=0.000
       8 -> 15        -0.13345
      10 -> 16         0.13916
      10 -> 17         0.38815
      10 -> 19         0.15345
      11 -> 24         0.27907
      11 -> 25         0.34927
      12 -> 23         0.17807

 Excited State  38:      Singlet-A"    14.0253 eV   88.40 nm  f=0.0083  <S**2>=0.000
       9 -> 15        -0.12277
       9 -> 16         0.62268
      12 -> 26         0.24989

 Excited State  39:      Singlet-A'    14.1035 eV   87.91 nm  f=0.0040  <S**2>=0.000
       9 -> 18        -0.16947
      10 -> 16         0.58764
      10 -> 17        -0.17757
      10 -> 19        -0.10357
      11 -> 26        -0.10997
      12 -> 27        -0.10246

 Excited State  40:      Singlet-A"    14.2091 eV   87.26 nm  f=0.0022  <S**2>=0.000
       9 -> 16        -0.23917
      12 -> 26         0.63964

 Excited State  41:      Singlet-A'    14.2179 eV   87.20 nm  f=0.0278  <S**2>=0.000
       8 -> 14         0.15335
       8 -> 15         0.42761
       9 -> 18         0.34047
      10 -> 16         0.12618
      10 -> 19        -0.10349
      11 -> 26         0.29203

 Excited State  42:      Singlet-A'    14.3837 eV   86.20 nm  f=0.0108  <S**2>=0.000
       8 -> 15        -0.43471
       9 -> 18         0.44735
      10 -> 17        -0.14996
      10 -> 19        -0.11620
      11 -> 26         0.10017

 Excited State  43:      Singlet-A"    14.5191 eV   85.39 nm  f=0.0013  <S**2>=0.000
       8 -> 18        -0.13055
      10 -> 18         0.66689
      11 -> 23        -0.11572

 Excited State  44:      Singlet-A'    14.5807 eV   85.03 nm  f=0.0098  <S**2>=0.000
       7 -> 14        -0.14237
       8 -> 15        -0.15944
       8 -> 17         0.10374
       9 -> 18        -0.23633
      10 -> 19         0.22195
      11 -> 26         0.53696

 Excited State  45:      Singlet-A'    14.7812 eV   83.88 nm  f=0.0187  <S**2>=0.000
       8 -> 17        -0.19168
       9 -> 18        -0.12470
      10 -> 19        -0.22283
      10 -> 20         0.20910
      12 -> 27         0.54677

 Excited State  46:      Singlet-A"    14.9231 eV   83.08 nm  f=0.0440  <S**2>=0.000
       6 -> 13         0.19833
       9 -> 17        -0.20238
       9 -> 19        -0.17614
       9 -> 20         0.57847
      12 -> 24         0.11447

 Excited State  47:      Singlet-A'    14.9548 eV   82.91 nm  f=0.1038  <S**2>=0.000
       8 -> 17         0.26136
       9 -> 18         0.14527
      10 -> 17        -0.11079
      10 -> 19         0.35600
      10 -> 20        -0.16155
      11 -> 26        -0.17907
      12 -> 27         0.38723

 Excited State  48:      Singlet-A'    15.0195 eV   82.55 nm  f=0.2043  <S**2>=0.000
      10 -> 17        -0.13343
      10 -> 19         0.29993
      10 -> 20         0.56077

 Excited State  49:      Singlet-A"    15.2077 eV   81.53 nm  f=0.0005  <S**2>=0.000
       6 -> 13         0.12670
       9 -> 19         0.10572
      11 -> 27         0.66262

 Excited State  50:      Singlet-A'    15.2995 eV   81.04 nm  f=0.0574  <S**2>=0.000
       7 -> 14         0.40303
       8 -> 16        -0.39414
       8 -> 17        -0.25318
      10 -> 19         0.15993
      10 -> 20        -0.15042
      10 -> 21         0.10087

 Excited State  51:      Singlet-A"    15.3354 eV   80.85 nm  f=0.0004  <S**2>=0.000
       9 -> 17        -0.10771
       9 -> 19         0.64866
       9 -> 20         0.11020
      11 -> 27        -0.14120

 Excited State  52:      Singlet-A'    15.3710 eV   80.66 nm  f=0.0326  <S**2>=0.000
       7 -> 14         0.37900
       8 -> 17         0.41255
       8 -> 20         0.14948
       9 -> 18        -0.12267
      10 -> 16        -0.14748
      10 -> 17         0.11149
      10 -> 19        -0.10499
      10 -> 20         0.18818

 Excited State  53:      Singlet-A'    15.5186 eV   79.89 nm  f=0.2117  <S**2>=0.000
       7 -> 14         0.32174
       8 -> 16         0.49665
       8 -> 17        -0.18431
      10 -> 19         0.17493
      10 -> 21        -0.15197

 Excited State  54:      Singlet-A"    15.5352 eV   79.81 nm  f=0.0300  <S**2>=0.000
       6 -> 13         0.31236
       9 -> 20        -0.14644
      12 -> 28         0.53452
      12 -> 29        -0.21139

 Excited State  55:      Singlet-A"    15.6304 eV   79.32 nm  f=0.0140  <S**2>=0.000
       6 -> 13        -0.24969
       8 -> 18         0.19321
       9 -> 21         0.49077
      10 -> 22         0.11195
      12 -> 28         0.14382
      12 -> 29        -0.26933

 Excited State  56:      Singlet-A"    15.6964 eV   78.99 nm  f=0.0066  <S**2>=0.000
       6 -> 13        -0.22451
       8 -> 18         0.45259
       9 -> 20         0.12641
       9 -> 21        -0.35160
      10 -> 22         0.16273
      11 -> 30        -0.12233
      12 -> 28         0.12089

 Excited State  57:      Singlet-A"    15.8142 eV   78.40 nm  f=0.0764  <S**2>=0.000
       6 -> 13         0.38966
       8 -> 18         0.44815
       9 -> 20        -0.16649
       9 -> 21         0.14247
      10 -> 22        -0.11191
      12 -> 28        -0.20649

 Excited State  58:      Singlet-A'    15.8588 eV   78.18 nm  f=0.0419  <S**2>=0.000
       7 -> 15        -0.18370
       7 -> 16         0.10320
       8 -> 16         0.16122
       8 -> 21        -0.11946
      10 -> 21         0.51062
      11 -> 28         0.29559

 Excited State  59:      Singlet-A'    16.0006 eV   77.49 nm  f=0.0651  <S**2>=0.000
       7 -> 15         0.59886
      10 -> 21         0.16290
      12 -> 30         0.14516

 Excited State  60:      Singlet-A'    16.1469 eV   76.79 nm  f=0.0929  <S**2>=0.000
       8 -> 19         0.13733
      10 -> 21        -0.27713
      11 -> 28         0.54990
      11 -> 29        -0.20353
      12 -> 30         0.12488

 Excited State  61:      Singlet-A"    16.1616 eV   76.72 nm  f=0.0782  <S**2>=0.000
       9 -> 21         0.17043
      12 -> 28         0.31715
      12 -> 29         0.57656

 Excited State  62:      Singlet-A'    16.2711 eV   76.20 nm  f=0.0423  <S**2>=0.000
       7 -> 15        -0.10946
       8 -> 17        -0.13744
       8 -> 19        -0.16395
       8 -> 20         0.54603
      10 -> 21         0.10232
      11 -> 29        -0.12367
      12 -> 30         0.25262

 Excited State  63:      Singlet-A'    16.4745 eV   75.26 nm  f=0.0365  <S**2>=0.000
       7 -> 15        -0.15414
       8 -> 19        -0.34688
       8 -> 20        -0.27752
      11 -> 29         0.13541
      12 -> 30         0.45669

 Excited State  64:      Singlet-A"    16.4946 eV   75.17 nm  f=0.2443  <S**2>=0.000
       6 -> 13         0.17759
       8 -> 18        -0.13200
       8 -> 22         0.12507
      10 -> 22         0.53238
      11 -> 30        -0.27325
      12 -> 33         0.12496

 Excited State  65:      Singlet-A'    16.5883 eV   74.74 nm  f=0.1016  <S**2>=0.000
       7 -> 16        -0.10537
       7 -> 17        -0.21564
       8 -> 19         0.16749
      10 -> 25        -0.12327
      11 -> 28         0.16928
      11 -> 29         0.55117
      12 -> 30         0.10835

 Excited State  66:      Singlet-A'    16.6119 eV   74.64 nm  f=0.0910  <S**2>=0.000
       7 -> 19         0.10303
       8 -> 19         0.46362
      11 -> 28        -0.20594
      11 -> 29        -0.15074
      12 -> 30         0.36626

 Excited State  67:      Singlet-A"    16.6474 eV   74.48 nm  f=0.0000  <S**2>=0.000
      10 -> 22         0.28609
      11 -> 30         0.58685
      12 -> 31        -0.14442

 Excited State  68:      Singlet-A"    16.7443 eV   74.05 nm  f=0.0143  <S**2>=0.000
       9 -> 25         0.18920
      11 -> 30         0.17188
      12 -> 31         0.61268
      12 -> 32        -0.18058

 Excited State  69:      Singlet-A'    16.8185 eV   73.72 nm  f=0.0899  <S**2>=0.000
       6 -> 14        -0.15947
       7 -> 16         0.12660
       7 -> 17         0.43809
       7 -> 19         0.10426
       8 -> 20         0.14562
       8 -> 21        -0.24485
      10 -> 24         0.10532
      10 -> 25         0.11411
      11 -> 29         0.24035

 Excited State  70:      Singlet-A"    16.9364 eV   73.21 nm  f=0.0001  <S**2>=0.000
       7 -> 18        -0.26260
      10 -> 22        -0.13011
      10 -> 23         0.60011
      11 -> 27        -0.11278

 Excited State  71:      Singlet-A'    16.9923 eV   72.97 nm  f=0.0035  <S**2>=0.000
       7 -> 16         0.17411
       7 -> 17         0.13020
       8 -> 21         0.31401
      10 -> 25        -0.17081
      11 -> 31         0.47670
      11 -> 32        -0.19594

 Excited State  72:      Singlet-A'    17.0946 eV   72.53 nm  f=0.0222  <S**2>=0.000
       7 -> 16         0.10438
       8 -> 21         0.14962
       9 -> 22         0.48706
       9 -> 23        -0.38841
      10 -> 24        -0.12443

 Excited State  73:      Singlet-A"    17.1379 eV   72.35 nm  f=0.0123  <S**2>=0.000
      12 -> 31         0.17784
      12 -> 32         0.63678
      12 -> 33         0.15026

 Excited State  74:      Singlet-A'    17.2452 eV   71.89 nm  f=0.0561  <S**2>=0.000
       7 -> 16         0.57778
       7 -> 17        -0.15973
       7 -> 21        -0.11166
       9 -> 22        -0.14476
      10 -> 21        -0.10009
      11 -> 31        -0.19663

 Excited State  75:      Singlet-A"    17.3628 eV   71.41 nm  f=0.0118  <S**2>=0.000
       9 -> 24         0.59577
       9 -> 25        -0.28049
      12 -> 33        -0.13755

 Excited State  76:      Singlet-A'    17.3645 eV   71.40 nm  f=0.1060  <S**2>=0.000
       7 -> 17         0.19167
       7 -> 20        -0.19489
       8 -> 21         0.40910
      10 -> 21         0.10599
      10 -> 24         0.17556
      11 -> 31        -0.36960

 Excited State  77:      Singlet-A'    17.4113 eV   71.21 nm  f=0.0544  <S**2>=0.000
       6 -> 14         0.33152
       7 -> 19         0.11235
       9 -> 22        -0.14206
       9 -> 23        -0.16108
      10 -> 25         0.45740
      11 -> 31         0.15542

 Excited State  78:      Singlet-A'    17.5025 eV   70.84 nm  f=0.0217  <S**2>=0.000
       7 -> 17        -0.10781
       8 -> 21        -0.10451
       9 -> 22         0.37699
       9 -> 23         0.37169
      10 -> 25         0.20360
      11 -> 32        -0.31532

 Excited State  79:      Singlet-A"    17.5053 eV   70.83 nm  f=0.0609  <S**2>=0.000
       9 -> 17        -0.10285
       9 -> 21        -0.10037
       9 -> 24         0.17419
       9 -> 25         0.46350
      12 -> 32         0.11045
      12 -> 33        -0.41294

 Excited State  80:      Singlet-A'    17.6009 eV   70.44 nm  f=0.0806  <S**2>=0.000
       6 -> 14         0.26749
       6 -> 15        -0.18391
       7 -> 16         0.16890
       7 -> 19         0.15688
       9 -> 22         0.16417
       9 -> 23         0.19940
      10 -> 25        -0.18058
      11 -> 32         0.42276

 Excited State  81:      Singlet-A'    17.6316 eV   70.32 nm  f=0.0062  <S**2>=0.000
       6 -> 14         0.45042
       6 -> 15         0.10592
       7 -> 17         0.11171
       8 -> 21        -0.13635
      10 -> 24        -0.20220
      10 -> 25        -0.19421
      11 -> 31        -0.13484
      11 -> 32        -0.30666

 Excited State  82:      Singlet-A"    17.7352 eV   69.91 nm  f=0.0001  <S**2>=0.000
       7 -> 18         0.62508
       9 -> 25        -0.10245
      10 -> 23         0.23975

 Excited State  83:      Singlet-A"    17.8171 eV   69.59 nm  f=0.0355  <S**2>=0.000
       9 -> 24        -0.19932
       9 -> 25        -0.24632
      12 -> 31         0.10594
      12 -> 33        -0.40284
      12 -> 34         0.42002

 Excited State  84:      Singlet-A'    17.8639 eV   69.41 nm  f=0.0569  <S**2>=0.000
       7 -> 16         0.12840
       7 -> 17        -0.10466
       7 -> 20        -0.12200
       8 -> 21        -0.10885
       9 -> 23        -0.22087
      10 -> 24         0.32231
      10 -> 25        -0.13071
      11 -> 32        -0.10630
      11 -> 33         0.44351
      12 -> 35        -0.16379

 Excited State  85:      Singlet-A"    17.9102 eV   69.23 nm  f=0.0111  <S**2>=0.000
       9 -> 24         0.20403
       9 -> 25         0.19393
      12 -> 31        -0.10200
      12 -> 33         0.27731
      12 -> 34         0.53684

 Excited State  86:      Singlet-A'    18.0016 eV   68.87 nm  f=0.0342  <S**2>=0.000
       6 -> 15        -0.15467
       9 -> 23         0.10281
      10 -> 24        -0.40527
      10 -> 26        -0.10099
      11 -> 33         0.45380
      12 -> 35         0.13700

 Excited State  87:      Singlet-A'    18.1072 eV   68.47 nm  f=0.0085  <S**2>=0.000
       6 -> 14         0.11071
       6 -> 15         0.27392
       7 -> 19        -0.25590
       7 -> 20         0.28073
       9 -> 23         0.14499
      10 -> 24         0.20468
      10 -> 26        -0.19245
      11 -> 33         0.18499
      11 -> 34         0.15670
      12 -> 35         0.22139

 Excited State  88:      Singlet-A'    18.2716 eV   67.86 nm  f=0.0044  <S**2>=0.000
       6 -> 15         0.41129
       6 -> 17         0.10534
       7 -> 20        -0.34820
       8 -> 19         0.10291
      10 -> 25         0.12789
      11 -> 32         0.12073
      11 -> 34        -0.30051

 Excited State  89:      Singlet-A"    18.3296 eV   67.64 nm  f=0.0172  <S**2>=0.000
       8 -> 22         0.52114
       8 -> 23        -0.31635
       9 -> 26         0.25150
      10 -> 27        -0.15219

 The electronic state is 1-A'.
 Alpha  occ. eigenvalues --  -19.31344 -14.51025 -10.33626  -1.19565  -0.96286
 Alpha  occ. eigenvalues --   -0.70875  -0.63181  -0.56708  -0.51724  -0.51276
 Alpha  occ. eigenvalues --   -0.37456  -0.36187
 Alpha virt. eigenvalues --    0.05727   0.08859   0.11042   0.16163   0.17343
 Alpha virt. eigenvalues --    0.18415   0.20622   0.21268   0.23479   0.27996
 Alpha virt. eigenvalues --    0.29457   0.30094   0.30557   0.33829   0.35800

 Mulliken charges:
               1
     1  O   -0.384997
     2  N   -0.034675
     3  C    0.461870
     4  H    0.215350
     5  H   -0.164947
     6  H   -0.092601
 Sum of Mulliken charges =  -0.00000

 Dipole moment (field-independent basis, Debye):
    X=              0.3143    Y=             -0.1631    Z=              0.0000  Tot=              0.3542
 Quadrupole moment (field-independent basis, Debye-Ang):
   XX=            -11.8679   YY=            -19.4534   ZZ=            -19.0929
   XY=             -1.5425   XZ=              0.0000   YZ=              0.0000

 Normal termination of Gaussian 16 at Mon Mar 21 15:52:19 2022.
