 Gaussian 16, Revision C.01,
 Gaussian 16:  EM64L-G16RevC.01  3-Jul-2019

 ----------------------------------------------------------------------
 #P TD(Nstates=10000) wB97XD/Gen SCF(maxcycles=100) Int(Grid=ultrafine)
 ----------------------------------------------------------------------

 ---------------------
 xGDB7_00001_tier4.com
 ---------------------
 Symbolic Z-matrix:
 Charge =  0 Multiplicity = 1

                         Standard orientation:
 ---------------------------------------------------------------------
 Center     Atomic      Atomic             Coordinates (Angstroms)
 Number     Number       Type             X           Y           Z
 ---------------------------------------------------------------------
      1          8           0        0.000000   -0.000000    0.116015
      2          1           0        0.000000    0.761895   -0.464058
      3          1           0       -0.000000   -0.761895   -0.464058
 ---------------------------------------------------------------------

 SCF Done:  E(RwB97XD) =  -76.3555365582     A.U. after   11 cycles

 Excitation energies and oscillator strengths:

 Excited State   1:      Singlet-B1     7.8465 eV  158.01 nm  f=0.0582  <S**2>=0.000
       5 ->  6         0.70210
 This state for optimization and/or second-order correction.
 Total Energy, E(TD-HF/TD-DFT) =  -76.0671839515
 Copying the excited state density for this state as the 1-particle RhoCI density.

 Excited State   2:      Singlet-A2     9.6442 eV  128.56 nm  f=0.0000  <S**2>=0.000
       5 ->  7         0.68881
       5 -> 10         0.13379

 Excited State   3:      Singlet-A1     9.9435 eV  124.69 nm  f=0.1041  <S**2>=0.000
       4 ->  6         0.68869
       5 ->  8         0.12484

 Excited State   4:      Singlet-B1    11.0805 eV  111.89 nm  f=0.0062  <S**2>=0.000
       5 ->  9         0.69975

 Excited State   5:      Singlet-A1    11.4251 eV  108.52 nm  f=0.0018  <S**2>=0.000
       4 ->  6        -0.10950
       4 ->  9        -0.15156
       5 ->  8         0.67397

 Excited State   6:      Singlet-B2    11.7690 eV  105.35 nm  f=0.0140  <S**2>=0.000
       4 ->  7         0.69778

 Excited State   7:      Singlet-A2    12.1210 eV  102.29 nm  f=0.0000  <S**2>=0.000
       5 ->  7        -0.13862
       5 -> 10         0.68872

 Excited State   8:      Singlet-B1    12.9246 eV   95.93 nm  f=0.0445  <S**2>=0.000
       4 ->  8         0.44687
       5 -> 11         0.54016

 Excited State   9:      Singlet-B1    13.0750 eV   94.83 nm  f=0.0130  <S**2>=0.000
       4 ->  8         0.54199
       5 -> 11        -0.44907

 Excited State  10:      Singlet-A1    13.3554 eV   92.83 nm  f=0.0373  <S**2>=0.000
       3 ->  7         0.11685
       4 ->  9         0.67146
       5 ->  8         0.12743

 Excited State  11:      Singlet-B2    13.8668 eV   89.41 nm  f=0.0967  <S**2>=0.000
       3 ->  6         0.68823
       4 -> 10        -0.12826

 Excited State  12:      Singlet-B2    14.1120 eV   87.86 nm  f=0.0077  <S**2>=0.000
       4 -> 10        -0.36685
       5 -> 12         0.59680

 Excited State  13:      Singlet-B1    14.3914 eV   86.15 nm  f=0.0537  <S**2>=0.000
       5 -> 13         0.69408

 Excited State  14:      Singlet-B2    14.5869 eV   85.00 nm  f=0.3372  <S**2>=0.000
       3 ->  6         0.14500
       4 -> 10         0.57994
       5 -> 12         0.36657

 Excited State  15:      Singlet-A1    14.9625 eV   82.86 nm  f=0.0703  <S**2>=0.000
       4 -> 11         0.66446
       5 -> 14         0.22257

 Excited State  16:      Singlet-A1    15.2702 eV   81.19 nm  f=0.0118  <S**2>=0.000
       3 ->  7        -0.23873
       4 -> 11        -0.21105
       5 -> 14         0.61190

 Excited State  17:      Singlet-A1    16.0611 eV   77.20 nm  f=0.0009  <S**2>=0.000
       3 ->  7         0.50578
       4 ->  9        -0.11122
       4 -> 13         0.44926
       5 -> 14         0.10532

 Excited State  18:      Singlet-A2    16.2428 eV   76.33 nm  f=0.0000  <S**2>=0.000
       4 -> 12         0.70380

 Excited State  19:      Singlet-A2    17.0628 eV   72.66 nm  f=0.0000  <S**2>=0.000
       3 ->  8         0.69915

 Excited State  20:      Singlet-B1    17.0749 eV   72.61 nm  f=0.0569  <S**2>=0.000
       4 -> 14         0.23330
       5 -> 15         0.66324

 Excited State  21:      Singlet-B2    17.2175 eV   72.01 nm  f=0.0408  <S**2>=0.000
       3 ->  9         0.69779
       3 -> 13         0.10593

 Excited State  22:      Singlet-A1    17.3368 eV   71.51 nm  f=0.0509  <S**2>=0.000
       3 ->  7        -0.40043
       3 -> 10         0.27672
       4 -> 13         0.46599
       5 -> 14        -0.17307

 Excited State  23:      Singlet-A2    17.3796 eV   71.34 nm  f=0.0000  <S**2>=0.000
       5 -> 16         0.63620
       5 -> 17        -0.29266

 Excited State  24:      Singlet-B1    17.4230 eV   71.16 nm  f=0.1895  <S**2>=0.000
       4 -> 14         0.66019
       5 -> 15        -0.23587

 Excited State  25:      Singlet-A2    18.3774 eV   67.47 nm  f=0.0000  <S**2>=0.000
       5 -> 16         0.29927
       5 -> 17         0.63714

 Excited State  26:      Singlet-A1    18.9486 eV   65.43 nm  f=0.2792  <S**2>=0.000
       3 -> 10         0.58816
       4 -> 13        -0.21987
       4 -> 15         0.25688
       5 -> 14         0.12983

 Excited State  27:      Singlet-B2    19.1495 eV   64.75 nm  f=0.2178  <S**2>=0.000
       3 -> 11         0.67393
       4 -> 17        -0.16839

 Excited State  28:      Singlet-A1    19.1499 eV   64.74 nm  f=0.0658  <S**2>=0.000
       3 -> 10        -0.23377
       4 -> 15         0.65486

 Excited State  29:      Singlet-B2    19.5088 eV   63.55 nm  f=0.0054  <S**2>=0.000
       3 -> 11        -0.10966
       4 -> 16         0.67391
       4 -> 17        -0.14925

 Excited State  30:      Singlet-B1    20.1800 eV   61.44 nm  f=0.0981  <S**2>=0.000
       3 -> 12         0.69964

 Excited State  31:      Singlet-B2    20.3558 eV   60.91 nm  f=0.0011  <S**2>=0.000
       3 ->  9        -0.10204
       3 -> 13         0.68815

 Excited State  32:      Singlet-B2    20.5974 eV   60.19 nm  f=0.0244  <S**2>=0.000
       3 -> 11         0.13621
       4 -> 16         0.17557
       4 -> 17         0.65564

 Excited State  33:      Singlet-A2    21.1690 eV   58.57 nm  f=0.0000  <S**2>=0.000
       3 -> 14         0.69377

 Excited State  34:      Singlet-A2    21.4878 eV   57.70 nm  f=0.0000  <S**2>=0.000
       5 -> 18         0.69764

 Excited State  35:      Singlet-B1    22.1939 eV   55.86 nm  f=0.1967  <S**2>=0.000
       4 -> 20        -0.13216
       5 -> 19         0.68372

 Excited State  36:      Singlet-A1    22.9241 eV   54.08 nm  f=0.0734  <S**2>=0.000
       3 -> 16        -0.10804
       4 -> 19         0.20966
       4 -> 21         0.10346
       5 -> 20         0.65083

 Excited State  37:      Singlet-B2    23.1377 eV   53.59 nm  f=0.0317  <S**2>=0.000
       3 -> 15         0.69807

 Excited State  38:      Singlet-B2    23.4938 eV   52.77 nm  f=0.0121  <S**2>=0.000
       4 -> 18         0.57679
       5 -> 22        -0.39392

 Excited State  39:      Singlet-B1    23.5617 eV   52.62 nm  f=0.0001  <S**2>=0.000
       4 -> 20        -0.11467
       5 -> 21         0.69556

 Excited State  40:      Singlet-A1    23.6622 eV   52.40 nm  f=0.0239  <S**2>=0.000
       3 -> 16         0.44601
       4 -> 19         0.52723

 Excited State  41:      Singlet-A1    23.9389 eV   51.79 nm  f=0.0200  <S**2>=0.000
       3 -> 16         0.48720
       3 -> 17         0.15679
       4 -> 19        -0.41467
       4 -> 21         0.11507
       5 -> 20         0.19747

 Excited State  42:      Singlet-B2    24.3744 eV   50.87 nm  f=0.3373  <S**2>=0.000
       3 -> 19        -0.10751
       4 -> 18         0.37392
       5 -> 22         0.56496

 Excited State  43:      Singlet-B1    24.9272 eV   49.74 nm  f=0.2662  <S**2>=0.000
       4 -> 20         0.68055
       5 -> 19         0.12535
       5 -> 21         0.11289

 Excited State  44:      Singlet-A1    24.9971 eV   49.60 nm  f=0.0386  <S**2>=0.000
       2 ->  6        -0.16773
       3 -> 16        -0.15263
       3 -> 17         0.64782

 Excited State  45:      Singlet-A2    25.7099 eV   48.22 nm  f=0.0000  <S**2>=0.000
       4 -> 22         0.70438

 Excited State  46:      Singlet-A1    25.8038 eV   48.05 nm  f=0.3081  <S**2>=0.000
       2 ->  6        -0.12575
       3 -> 17        -0.12287
       3 -> 18        -0.16654
       4 -> 21         0.65155

 Excited State  47:      Singlet-A1    27.4751 eV   45.13 nm  f=0.0325  <S**2>=0.000
       2 ->  6         0.63750
       3 -> 17         0.11877
       3 -> 18        -0.21443

 Excited State  48:      Singlet-B2    28.0684 eV   44.17 nm  f=0.1254  <S**2>=0.000
       3 -> 19         0.68065
       3 -> 21         0.13991

 Excited State  49:      Singlet-A1    28.3298 eV   43.76 nm  f=0.2704  <S**2>=0.000
       2 ->  6         0.18541
       3 -> 18         0.64136
       4 -> 21         0.17710

 Excited State  50:      Singlet-A2    28.8487 eV   42.98 nm  f=0.0000  <S**2>=0.000
       3 -> 20         0.70473

 Excited State  51:      Singlet-B2    28.8934 eV   42.91 nm  f=0.0164  <S**2>=0.000
       2 ->  7         0.67923
       2 -> 10         0.11142
       3 -> 21         0.13989

 Excited State  52:      Singlet-B1    29.9637 eV   41.38 nm  f=0.1331  <S**2>=0.000
       2 ->  8         0.49893
       3 -> 22         0.49432

 Excited State  53:      Singlet-A1    30.3095 eV   40.91 nm  f=0.0051  <S**2>=0.000
       2 ->  9         0.69181

 Excited State  54:      Singlet-B2    30.4518 eV   40.71 nm  f=0.2735  <S**2>=0.000
       2 ->  7        -0.12873
       3 -> 19        -0.13187
       3 -> 21         0.66843

 Excited State  55:      Singlet-B1    30.5369 eV   40.60 nm  f=0.1182  <S**2>=0.000
       2 ->  8        -0.48640
       3 -> 22         0.49743

 Excited State  56:      Singlet-B2    31.3431 eV   39.56 nm  f=0.0083  <S**2>=0.000
       2 ->  7        -0.10841
       2 -> 10         0.69458

 Excited State  57:      Singlet-B1    31.8266 eV   38.96 nm  f=0.0007  <S**2>=0.000
       5 -> 23         0.69807

 Excited State  58:      Singlet-A1    32.1148 eV   38.61 nm  f=0.0015  <S**2>=0.000
       2 -> 11         0.69999

 Excited State  59:      Singlet-A2    33.1860 eV   37.36 nm  f=0.0000  <S**2>=0.000
       2 -> 12         0.70244

 Excited State  60:      Singlet-A1    33.5080 eV   37.00 nm  f=0.0034  <S**2>=0.000
       2 -> 13         0.64821
       4 -> 23        -0.26333

 Excited State  61:      Singlet-B1    34.2936 eV   36.15 nm  f=0.0096  <S**2>=0.000
       2 -> 14         0.69948

 Excited State  62:      Singlet-A1    34.3034 eV   36.14 nm  f=0.0330  <S**2>=0.000
       2 -> 13         0.24831
       2 -> 15        -0.12274
       4 -> 23         0.63426
       5 -> 25         0.10338

 Excited State  63:      Singlet-A2    34.6710 eV   35.76 nm  f=0.0000  <S**2>=0.000
       5 -> 24         0.70289

 Excited State  64:      Singlet-A1    36.4886 eV   33.98 nm  f=0.0064  <S**2>=0.000
       2 -> 15         0.67527
       5 -> 25         0.16388

 Excited State  65:      Singlet-B2    36.5444 eV   33.93 nm  f=0.0068  <S**2>=0.000
       2 -> 16         0.60457
       2 -> 17        -0.10396
       3 -> 23         0.13819
       4 -> 24        -0.31782

 Excited State  66:      Singlet-B2    36.9880 eV   33.52 nm  f=0.0010  <S**2>=0.000
       2 -> 16         0.31177
       2 -> 17        -0.10904
       4 -> 24         0.61976

 Excited State  67:      Singlet-B2    37.4855 eV   33.08 nm  f=0.0009  <S**2>=0.000
       2 -> 16         0.16795
       2 -> 17         0.66572
       3 -> 23        -0.15515

 Excited State  68:      Singlet-B2    38.3865 eV   32.30 nm  f=0.0699  <S**2>=0.000
       2 -> 17         0.17379
       3 -> 23         0.66951

 Excited State  69:      Singlet-B1    39.2482 eV   31.59 nm  f=0.0094  <S**2>=0.000
       5 -> 26         0.70397

 Excited State  70:      Singlet-A1    39.7753 eV   31.17 nm  f=0.0104  <S**2>=0.000
       2 -> 19        -0.13535
       3 -> 24         0.27187
       4 -> 26        -0.32012
       5 -> 25         0.53876

 Excited State  71:      Singlet-B1    40.7825 eV   30.40 nm  f=0.0017  <S**2>=0.000
       4 -> 25         0.70424

 Excited State  72:      Singlet-B2    40.8924 eV   30.32 nm  f=0.0000  <S**2>=0.000
       2 -> 18         0.70355

 Excited State  73:      Singlet-A1    40.9843 eV   30.25 nm  f=0.0010  <S**2>=0.000
       2 -> 19         0.68555
       3 -> 24         0.14227

 Excited State  74:      Singlet-A1    41.1552 eV   30.13 nm  f=0.0275  <S**2>=0.000
       3 -> 24         0.56156
       4 -> 26         0.41188

 Excited State  75:      Singlet-B1    42.0809 eV   29.46 nm  f=0.0002  <S**2>=0.000
       2 -> 20         0.70434

 Excited State  76:      Singlet-A2    42.9766 eV   28.85 nm  f=0.0000  <S**2>=0.000
       2 -> 22         0.70222

 Excited State  77:      Singlet-A1    43.0304 eV   28.81 nm  f=0.0068  <S**2>=0.000
       2 -> 21         0.70390

 Excited State  78:      Singlet-A2    44.7452 eV   27.71 nm  f=0.0000  <S**2>=0.000
       3 -> 25         0.70287

 Excited State  79:      Singlet-B2    45.4989 eV   27.25 nm  f=0.0664  <S**2>=0.000
       3 -> 26         0.70273

 Excited State  80:      Singlet-A1    47.4900 eV   26.11 nm  f=0.0153  <S**2>=0.000
       2 -> 15        -0.10905
       2 -> 23        -0.23484
       3 -> 24        -0.26419
       3 -> 27         0.17243
       4 -> 26         0.42963
       5 -> 25         0.34079

 Excited State  81:      Singlet-A2    47.7195 eV   25.98 nm  f=0.0000  <S**2>=0.000
       5 -> 27         0.70632

 Excited State  82:      Singlet-B2    49.8667 eV   24.86 nm  f=0.0411  <S**2>=0.000
       4 -> 27         0.68760
       5 -> 29         0.15570

 Excited State  83:      Singlet-B1    50.7352 eV   24.44 nm  f=0.1142  <S**2>=0.000
       5 -> 28         0.70485

 Excited State  84:      Singlet-A1    51.6777 eV   23.99 nm  f=0.0963  <S**2>=0.000
       2 -> 23         0.64276
       3 -> 27         0.21973

 Excited State  85:      Singlet-B2    52.1624 eV   23.77 nm  f=0.1362  <S**2>=0.000
       4 -> 27        -0.14608
       5 -> 29         0.68084

 Excited State  86:      Singlet-A1    52.6575 eV   23.55 nm  f=0.0220  <S**2>=0.000
       3 -> 27         0.13706
       4 -> 28         0.69086

 Excited State  87:      Singlet-A2    53.7607 eV   23.06 nm  f=0.0000  <S**2>=0.000
       4 -> 29         0.70661

 Excited State  88:      Singlet-B2    54.1271 eV   22.91 nm  f=0.0449  <S**2>=0.000
       2 -> 24         0.70592

 Excited State  89:      Singlet-A1    55.7332 eV   22.25 nm  f=0.0087  <S**2>=0.000
       2 -> 23        -0.13494
       2 -> 26         0.12929
       3 -> 27         0.47147
       4 -> 26        -0.11052
       4 -> 28        -0.10945
       5 -> 25        -0.11518
       5 -> 30         0.43319

 Excited State  90:      Singlet-A1    56.3853 eV   21.99 nm  f=0.0588  <S**2>=0.000
       3 -> 27        -0.39825
       4 -> 32        -0.12452
       5 -> 30         0.54620

 Excited State  91:      Singlet-B2    57.0499 eV   21.73 nm  f=0.0122  <S**2>=0.000
       3 -> 28         0.69767

 Excited State  92:      Singlet-B1    57.8541 eV   21.43 nm  f=0.0059  <S**2>=0.000
       2 -> 25         0.20515
       3 -> 29        -0.42999
       4 -> 30         0.52108

 Excited State  93:      Singlet-B1    57.9859 eV   21.38 nm  f=0.2495  <S**2>=0.000
       2 -> 25         0.65479
       3 -> 29         0.25875

 Excited State  94:      Singlet-B1    58.3234 eV   21.26 nm  f=0.1131  <S**2>=0.000
       2 -> 25        -0.16326
       3 -> 29         0.43873
       4 -> 30         0.40555
       5 -> 32         0.33386

 Excited State  95:      Singlet-A1    58.7629 eV   21.10 nm  f=0.0974  <S**2>=0.000
       2 -> 26         0.68970

 Excited State  96:      Singlet-A2    59.1118 eV   20.97 nm  f=0.0000  <S**2>=0.000
       5 -> 31         0.70420

 Excited State  97:      Singlet-B1    59.4315 eV   20.86 nm  f=0.1490  <S**2>=0.000
       3 -> 29        -0.22538
       4 -> 30        -0.24304
       5 -> 32         0.62063

 Excited State  98:      Singlet-B2    61.2807 eV   20.23 nm  f=0.0178  <S**2>=0.000
       4 -> 31         0.70444

 Excited State  99:      Singlet-A2    61.8291 eV   20.05 nm  f=0.0000  <S**2>=0.000
       3 -> 30         0.70310

 Excited State 100:      Singlet-A1    61.8665 eV   20.04 nm  f=0.2217  <S**2>=0.000
       3 -> 31         0.10147
       4 -> 32         0.68592

 Excited State 101:      Singlet-B2    65.3338 eV   18.98 nm  f=0.1071  <S**2>=0.000
       2 -> 27         0.11582
       3 -> 32         0.69282

 Excited State 102:      Singlet-A1    65.3529 eV   18.97 nm  f=0.0001  <S**2>=0.000
       3 -> 31         0.69601

 Excited State 103:      Singlet-A2    67.2073 eV   18.45 nm  f=0.0000  <S**2>=0.000
       5 -> 33         0.70575

 Excited State 104:      Singlet-B2    67.2147 eV   18.45 nm  f=0.0409  <S**2>=0.000
       2 -> 27         0.69531
       3 -> 32        -0.11201

 Excited State 105:      Singlet-B2    69.9638 eV   17.72 nm  f=0.0114  <S**2>=0.000
       4 -> 33         0.69961

 Excited State 106:      Singlet-A2    70.8420 eV   17.50 nm  f=0.0000  <S**2>=0.000
       2 -> 29         0.70644

 Excited State 107:      Singlet-A1    71.2912 eV   17.39 nm  f=0.0026  <S**2>=0.000
       2 -> 28         0.66269
       3 -> 33        -0.15899
       4 -> 34        -0.13540

 Excited State 108:      Singlet-B1    71.9693 eV   17.23 nm  f=0.1475  <S**2>=0.000
       5 -> 34         0.69759

 Excited State 109:      Singlet-A1    72.6887 eV   17.06 nm  f=0.0083  <S**2>=0.000
       3 -> 33        -0.22895
       4 -> 34         0.66378

 Excited State 110:      Singlet-B1    74.8510 eV   16.56 nm  f=0.0259  <S**2>=0.000
       2 -> 30         0.70512

 Excited State 111:      Singlet-A1    74.9566 eV   16.54 nm  f=0.0299  <S**2>=0.000
       2 -> 28         0.18341
       3 -> 33         0.64071
       4 -> 34         0.19587

 Excited State 112:      Singlet-B2    76.9295 eV   16.12 nm  f=0.0137  <S**2>=0.000
       2 -> 31         0.14216
       3 -> 34         0.68699

 Excited State 113:      Singlet-B2    77.9401 eV   15.91 nm  f=0.0000  <S**2>=0.000
       2 -> 31         0.69177
       3 -> 34        -0.14101

 Excited State 114:      Singlet-A1    78.5065 eV   15.79 nm  f=0.0030  <S**2>=0.000
       2 -> 32         0.70556

 Excited State 115:      Singlet-B2    86.7947 eV   14.28 nm  f=0.0177  <S**2>=0.000
       2 -> 33         0.70437

 Excited State 116:      Singlet-A1    88.6097 eV   13.99 nm  f=0.1609  <S**2>=0.000
       4 -> 37        -0.20455
       5 -> 35         0.67247

 Excited State 117:      Singlet-B1    90.1746 eV   13.75 nm  f=0.0877  <S**2>=0.000
       3 -> 36        -0.17286
       4 -> 35         0.65912
       5 -> 37         0.17415

 Excited State 118:      Singlet-A1    90.4735 eV   13.70 nm  f=0.0160  <S**2>=0.000
       2 -> 34         0.70511

 Excited State 119:      Singlet-B2    90.6027 eV   13.68 nm  f=0.2063  <S**2>=0.000
       3 -> 37         0.11902
       5 -> 36         0.68842

 Excited State 120:      Singlet-A2    90.6137 eV   13.68 nm  f=0.0000  <S**2>=0.000
       4 -> 36         0.70627

 Excited State 121:      Singlet-B1    92.6207 eV   13.39 nm  f=0.0176  <S**2>=0.000
       3 -> 36         0.19123
       4 -> 35        -0.12287
       5 -> 37         0.66858

 Excited State 122:      Singlet-A2    92.8333 eV   13.36 nm  f=0.0000  <S**2>=0.000
       3 -> 35         0.70646

 Excited State 123:      Singlet-B1    96.5773 eV   12.84 nm  f=0.1878  <S**2>=0.000
       3 -> 36         0.64057
       4 -> 35         0.18540
       5 -> 37        -0.13949
       5 -> 38         0.17680

 Excited State 124:      Singlet-A1    97.3516 eV   12.74 nm  f=0.2953  <S**2>=0.000
       4 -> 37         0.67331
       5 -> 35         0.19608

 Excited State 125:      Singlet-B2    99.3263 eV   12.48 nm  f=0.0703  <S**2>=0.000
       3 -> 37         0.69330
       5 -> 36        -0.10752

 Excited State 126:      Singlet-B1   106.2237 eV   11.67 nm  f=0.1981  <S**2>=0.000
       2 -> 35        -0.33902
       3 -> 36        -0.11784
       5 -> 38         0.60005

 Excited State 127:      Singlet-A1   106.6212 eV   11.63 nm  f=0.0095  <S**2>=0.000
       4 -> 38         0.70565

 Excited State 128:      Singlet-B1   107.0689 eV   11.58 nm  f=0.1131  <S**2>=0.000
       2 -> 35         0.62005
       5 -> 38         0.32251

 Excited State 129:      Singlet-A2   108.4062 eV   11.44 nm  f=0.0000  <S**2>=0.000
       2 -> 36         0.70645

 Excited State 130:      Singlet-B2   111.1124 eV   11.16 nm  f=0.0562  <S**2>=0.000
       3 -> 38         0.69662
       4 -> 39         0.10320

 Excited State 131:      Singlet-A1   112.3213 eV   11.04 nm  f=0.0056  <S**2>=0.000
       2 -> 37         0.70599

 Excited State 132:      Singlet-A2   115.1434 eV   10.77 nm  f=0.0000  <S**2>=0.000
       5 -> 39         0.70667

 Excited State 133:      Singlet-B2   118.5741 eV   10.46 nm  f=0.1591  <S**2>=0.000
       4 -> 39         0.69655

 Excited State 134:      Singlet-A1   122.4301 eV   10.13 nm  f=0.0900  <S**2>=0.000
       3 -> 39         0.70248

 Excited State 135:      Singlet-A1   123.8745 eV   10.01 nm  f=0.0133  <S**2>=0.000
       2 -> 38         0.70547

 Excited State 136:      Singlet-B2   134.7556 eV    9.20 nm  f=0.0025  <S**2>=0.000
       2 -> 39         0.70700

 The electronic state is 1-A1.
 Alpha  occ. eigenvalues --  -19.27299  -1.10764  -0.63032  -0.48294  -0.41000
 Alpha virt. eigenvalues --    0.07673   0.13533   0.18397   0.18518   0.23735
 Alpha virt. eigenvalues --    0.26646   0.30960   0.32405   0.35462   0.42340
 Alpha virt. eigenvalues --    0.43590   0.46503   0.59941   0.60987   0.65103

 Mulliken charges:
               1
     1  O   -0.299104
     2  H    0.149552
     3  H    0.149552
 Sum of Mulliken charges =  -0.00000

 Dipole moment (field-independent basis, Debye):
    X=             -0.0000    Y=             -0.0000    Z=             -1.9033  Tot=              1.9033
 Quadrupole moment (field-independent basis, Debye-Ang):
   XX=             -7.7355   YY=             -4.4077   ZZ=             -6.4300
   XY=              0.0000   XZ=              0.0000   YZ=              0.0000

 Normal termination of Gaussian 16 at Mon Mar 21 16:01:29 2022.
