 Gaussian 16, Revision C.01,
 Gaussian 16:  EM64L-G16RevC.01  3-Jul-2019

 --------------------------------------------------------------------
 #P TD(Nstates=10000) blyp/Gen SCF(maxcycles=100) Int(Grid=ultrafine)
 --------------------------------------------------------------------

 ---------------------
 xGDB7_00001_tier4.com
 ---------------------
 Symbolic Z-matrix:
 Charge =  0 Multiplicity = 1

                         Standard orientation:
 ---------------------------------------------------------------------
 Center     Atomic      Atomic             Coordinates (Angstroms)
 Number     Number       Type             X           Y           Z
 ---------------------------------------------------------------------
      1          6           0        0.046419    0.658432    0.000000
      2          8           0        0.046419   -0.751929    0.000000
      3          1           0       -0.438905    1.073261    0.890797
      4          1           0       -0.438905    1.073261   -0.890797
      5          1           0        1.087855    0.977571    0.000000
      6          1           0       -0.859911   -1.059251    0.000000
 ---------------------------------------------------------------------

 SCF Done:  E(RB-LYP) =  -115.604176175     A.U. after   12 cycles

 Excitation energies and oscillator strengths:

 Excited State   1:      Singlet-A"     6.1124 eV  202.84 nm  f=0.0009  <S**2>=0.000
       9 -> 10         0.70555
 This state for optimization and/or second-order correction.
 Total Energy, E(TD-HF/TD-DFT) =  -115.379548342
 Copying the excited state density for this state as the 1-particle RhoCI density.

 Excited State   2:      Singlet-A"     7.0062 eV  176.96 nm  f=0.0269  <S**2>=0.000
       9 -> 11         0.70466

 Excited State   3:      Singlet-A'     7.7534 eV  159.91 nm  f=0.0015  <S**2>=0.000
       8 -> 10         0.70163

 Excited State   4:      Singlet-A"     8.1936 eV  151.32 nm  f=0.0129  <S**2>=0.000
       9 -> 13         0.70574

 Excited State   5:      Singlet-A'     8.2053 eV  151.10 nm  f=0.0558  <S**2>=0.000
       9 -> 12         0.70105

 Excited State   6:      Singlet-A'     8.6738 eV  142.94 nm  f=0.0477  <S**2>=0.000
       8 -> 11         0.70282

 Excited State   7:      Singlet-A"     9.0536 eV  136.95 nm  f=0.0027  <S**2>=0.000
       9 -> 14         0.70395

 Excited State   8:      Singlet-A"     9.3016 eV  133.29 nm  f=0.0028  <S**2>=0.000
       9 -> 15         0.70187

 Excited State   9:      Singlet-A'     9.7768 eV  126.81 nm  f=0.0045  <S**2>=0.000
       9 -> 16         0.67535
       9 -> 18         0.18532

 Excited State  10:      Singlet-A"     9.8040 eV  126.46 nm  f=0.0221  <S**2>=0.000
       8 -> 12         0.70373

 Excited State  11:      Singlet-A'     9.8807 eV  125.48 nm  f=0.0777  <S**2>=0.000
       8 -> 13         0.70250

 Excited State  12:      Singlet-A'    10.2237 eV  121.27 nm  f=0.0384  <S**2>=0.000
       7 -> 10         0.70294

 Excited State  13:      Singlet-A"    10.2290 eV  121.21 nm  f=0.0004  <S**2>=0.000
       9 -> 17         0.70567

 Excited State  14:      Singlet-A'    10.4432 eV  118.72 nm  f=0.0231  <S**2>=0.000
       8 -> 14         0.17363
       8 -> 15        -0.17194
       9 -> 16        -0.14782
       9 -> 18         0.63369

 Excited State  15:      Singlet-A"    10.4818 eV  118.29 nm  f=0.0662  <S**2>=0.000
       6 -> 10         0.70332

 Excited State  16:      Singlet-A'    10.7800 eV  115.01 nm  f=0.0021  <S**2>=0.000
       8 -> 14         0.66837
       8 -> 15         0.16400
       9 -> 18        -0.11532

 Excited State  17:      Singlet-A'    11.0893 eV  111.81 nm  f=0.0432  <S**2>=0.000
       7 -> 11         0.54395
       8 -> 15         0.43558

 Excited State  18:      Singlet-A"    11.1971 eV  110.73 nm  f=0.0006  <S**2>=0.000
       8 -> 16         0.14611
       9 -> 19         0.68825

 Excited State  19:      Singlet-A'    11.2850 eV  109.87 nm  f=0.0624  <S**2>=0.000
       7 -> 11        -0.42971
       8 -> 14        -0.11480
       8 -> 15         0.47777
       8 -> 17         0.12849
       9 -> 18         0.15546

 Excited State  20:      Singlet-A"    11.3135 eV  109.59 nm  f=0.0072  <S**2>=0.000
       8 -> 16         0.68512
       9 -> 19        -0.14467

 Excited State  21:      Singlet-A"    11.3980 eV  108.78 nm  f=0.0384  <S**2>=0.000
       6 -> 11         0.70054

 Excited State  22:      Singlet-A"    11.8987 eV  104.20 nm  f=0.0002  <S**2>=0.000
       8 -> 18         0.70232

 Excited State  23:      Singlet-A'    11.9607 eV  103.66 nm  f=0.0066  <S**2>=0.000
       6 -> 12         0.13102
       8 -> 17         0.67379

 Excited State  24:      Singlet-A"    12.1936 eV  101.68 nm  f=0.0423  <S**2>=0.000
       7 -> 12         0.14217
       9 -> 20         0.67851

 Excited State  25:      Singlet-A"    12.2491 eV  101.22 nm  f=0.0039  <S**2>=0.000
       7 -> 12         0.69106
       9 -> 20        -0.14024

 Excited State  26:      Singlet-A'    12.4327 eV   99.72 nm  f=0.0702  <S**2>=0.000
       6 -> 12        -0.37249
       7 -> 13         0.58041

 Excited State  27:      Singlet-A'    12.4712 eV   99.42 nm  f=0.0571  <S**2>=0.000
       5 -> 10         0.61033
       6 -> 12        -0.23666
       7 -> 13        -0.21028
       8 -> 19         0.11407

 Excited State  28:      Singlet-A"    12.5688 eV   98.64 nm  f=0.0019  <S**2>=0.000
       6 -> 13         0.70432

 Excited State  29:      Singlet-A'    13.0076 eV   95.32 nm  f=0.0189  <S**2>=0.000
       5 -> 11        -0.24071
       6 -> 12         0.27361
       7 -> 13         0.19630
       7 -> 14         0.19486
       7 -> 15         0.20674
       8 -> 19         0.46645

 Excited State  30:      Singlet-A'    13.1419 eV   94.34 nm  f=0.0359  <S**2>=0.000
       5 -> 10        -0.19242
       6 -> 12        -0.28645
       7 -> 13        -0.15542
       7 -> 14        -0.35744
       8 -> 19         0.39251
       9 -> 24         0.18666

 Excited State  31:      Singlet-A"    13.1649 eV   94.18 nm  f=0.0026  <S**2>=0.000
       9 -> 21         0.69048
       9 -> 23        -0.12079

 Excited State  32:      Singlet-A'    13.2997 eV   93.22 nm  f=0.0513  <S**2>=0.000
       5 -> 11         0.60755
       7 -> 14         0.10412
       7 -> 15         0.29693
       8 -> 19         0.12194

 Excited State  33:      Singlet-A'    13.3149 eV   93.12 nm  f=0.0161  <S**2>=0.000
       6 -> 12         0.15712
       7 -> 14        -0.31671
       7 -> 15         0.20810
       9 -> 22         0.53460
       9 -> 24        -0.11286

 Excited State  34:      Singlet-A"    13.4526 eV   92.16 nm  f=0.0000  <S**2>=0.000
       6 -> 14         0.64385
       6 -> 15        -0.11215
       9 -> 23         0.26464

 Excited State  35:      Singlet-A'    13.5035 eV   91.82 nm  f=0.0477  <S**2>=0.000
       5 -> 10        -0.14159
       5 -> 13         0.13655
       6 -> 12        -0.20925
       6 -> 16         0.13690
       7 -> 14         0.42332
       7 -> 17         0.10414
       9 -> 22         0.38590

 Excited State  36:      Singlet-A"    13.5353 eV   91.60 nm  f=0.0120  <S**2>=0.000
       6 -> 14        -0.19815
       6 -> 15         0.30090
       9 -> 21         0.10081
       9 -> 23         0.59635

 Excited State  37:      Singlet-A'    13.5473 eV   91.52 nm  f=0.0888  <S**2>=0.000
       5 -> 11        -0.20136
       6 -> 12        -0.12483
       6 -> 16        -0.11767
       6 -> 18        -0.11332
       7 -> 13        -0.13439
       7 -> 15         0.52630
       8 -> 19        -0.16069
       9 -> 22        -0.18615
       9 -> 24        -0.17696

 Excited State  38:      Singlet-A"    13.6729 eV   90.68 nm  f=0.0007  <S**2>=0.000
       6 -> 14         0.12222
       6 -> 15         0.33214
       7 -> 16         0.58877
       9 -> 23        -0.15534

 Excited State  39:      Singlet-A'    13.7820 eV   89.96 nm  f=0.0021  <S**2>=0.000
       6 -> 16        -0.14394
       8 -> 20         0.64060
       8 -> 21         0.10669
       9 -> 24         0.20057

 Excited State  40:      Singlet-A'    13.9078 eV   89.15 nm  f=0.3622  <S**2>=0.000
       5 -> 11        -0.10554
       7 -> 15         0.13628
       8 -> 19        -0.16891
       8 -> 20        -0.21548
       9 -> 24         0.59737

 Excited State  41:      Singlet-A"    14.0104 eV   88.49 nm  f=0.1558  <S**2>=0.000
       5 -> 12         0.11115
       6 -> 14         0.13751
       6 -> 15         0.47421
       6 -> 17        -0.16919
       7 -> 16        -0.36039
       7 -> 18         0.19254
       9 -> 23        -0.15285

 Excited State  42:      Singlet-A'    14.2097 eV   87.25 nm  f=0.0960  <S**2>=0.000
       6 -> 16         0.52562
       7 -> 17        -0.42622

 Excited State  43:      Singlet-A"    14.3613 eV   86.33 nm  f=0.0061  <S**2>=0.000
       5 -> 12        -0.17957
       6 -> 17         0.15031
       7 -> 18         0.64968

 Excited State  44:      Singlet-A"    14.4681 eV   85.70 nm  f=0.0781  <S**2>=0.000
       5 -> 12         0.61587
       6 -> 17         0.21650
       7 -> 18         0.12550
       9 -> 25        -0.20608

 Excited State  45:      Singlet-A"    14.4843 eV   85.60 nm  f=0.0056  <S**2>=0.000
       5 -> 12         0.23734
       9 -> 25         0.66241

 Excited State  46:      Singlet-A'    14.5273 eV   85.35 nm  f=0.1092  <S**2>=0.000
       5 -> 13         0.41389
       5 -> 14        -0.10085
       6 -> 16        -0.30653
       6 -> 18         0.10000
       7 -> 17        -0.39871
       8 -> 21        -0.10542

 Excited State  47:      Singlet-A'    14.6124 eV   84.85 nm  f=0.0949  <S**2>=0.000
       5 -> 13         0.38108
       6 -> 16         0.17214
       6 -> 18         0.37777
       7 -> 17         0.31894
       8 -> 21        -0.17208

 Excited State  48:      Singlet-A"    14.6990 eV   84.35 nm  f=0.1040  <S**2>=0.000
       5 -> 12        -0.11030
       6 -> 15         0.13133
       6 -> 17         0.60366
       7 -> 18        -0.12470
       8 -> 22        -0.24298

 Excited State  49:      Singlet-A'    14.8303 eV   83.60 nm  f=0.1074  <S**2>=0.000
       5 -> 13        -0.31051
       6 -> 18         0.54198
       7 -> 17        -0.17640
       7 -> 19        -0.12944

 Excited State  50:      Singlet-A'    14.8837 eV   83.30 nm  f=0.0876  <S**2>=0.000
       5 -> 13         0.15184
       5 -> 15        -0.12147
       7 -> 19        -0.15312
       8 -> 21         0.61635
       9 -> 28        -0.10232

 Excited State  51:      Singlet-A"    15.1047 eV   82.08 nm  f=0.1789  <S**2>=0.000
       6 -> 17         0.15444
       8 -> 22         0.63582
       8 -> 24        -0.13231
       9 -> 29         0.10442

 Excited State  52:      Singlet-A'    15.1804 eV   81.67 nm  f=0.0136  <S**2>=0.000
       8 -> 23        -0.41647
       9 -> 26         0.55545

 Excited State  53:      Singlet-A'    15.2291 eV   81.41 nm  f=0.0041  <S**2>=0.000
       5 -> 15         0.17330
       7 -> 19        -0.15714
       8 -> 23         0.50257
       9 -> 26         0.41721

 Excited State  54:      Singlet-A"    15.2680 eV   81.21 nm  f=0.0181  <S**2>=0.000
       8 -> 24         0.19089
       9 -> 27         0.67460

 Excited State  55:      Singlet-A"    15.3857 eV   80.58 nm  f=0.0007  <S**2>=0.000
       8 -> 24         0.65928
       9 -> 27        -0.19720

 Excited State  56:      Singlet-A'    15.4400 eV   80.30 nm  f=0.0227  <S**2>=0.000
       5 -> 14         0.55704
       5 -> 15        -0.23938
       7 -> 19         0.27057
       7 -> 20         0.10639
       8 -> 23         0.11730

 Excited State  57:      Singlet-A"    15.5846 eV   79.56 nm  f=0.0017  <S**2>=0.000
       6 -> 19         0.69053
       9 -> 29         0.11068

 Excited State  58:      Singlet-A'    15.5994 eV   79.48 nm  f=0.0593  <S**2>=0.000
       5 -> 13        -0.10193
       5 -> 14        -0.30304
       6 -> 18         0.10598
       7 -> 19         0.42948
       8 -> 23         0.10023
       9 -> 28        -0.38601

 Excited State  59:      Singlet-A'    15.7581 eV   78.68 nm  f=0.0086  <S**2>=0.000
       5 -> 14        -0.19736
       5 -> 15        -0.42825
       7 -> 19         0.11002
       8 -> 23         0.17606
       9 -> 28         0.43915

 Excited State  60:      Singlet-A"    15.8413 eV   78.27 nm  f=0.0029  <S**2>=0.000
       5 -> 16        -0.45799
       9 -> 29         0.52758

 Excited State  61:      Singlet-A'    15.8843 eV   78.05 nm  f=0.1523  <S**2>=0.000
       4 -> 10        -0.11899
       5 -> 15         0.37207
       7 -> 19         0.30172
       7 -> 20         0.22921
       8 -> 21         0.11977
       8 -> 25        -0.21740
       9 -> 28         0.30001

 Excited State  62:      Singlet-A"    16.0289 eV   77.35 nm  f=0.1780  <S**2>=0.000
       5 -> 16         0.50957
       6 -> 20         0.13858
       9 -> 29         0.41512

 Excited State  63:      Singlet-A'    16.1762 eV   76.65 nm  f=0.0473  <S**2>=0.000
       5 -> 15         0.11211
       8 -> 25         0.66336

 Excited State  64:      Singlet-A"    16.3171 eV   75.98 nm  f=0.0010  <S**2>=0.000
       5 -> 18         0.11246
       9 -> 30         0.69158

 Excited State  65:      Singlet-A'    16.3686 eV   75.74 nm  f=0.1185  <S**2>=0.000
       4 -> 10         0.45096
       7 -> 20         0.50574

 Excited State  66:      Singlet-A"    16.5012 eV   75.14 nm  f=0.0016  <S**2>=0.000
       5 -> 18         0.24341
       6 -> 20         0.63679
       9 -> 30        -0.10265

 Excited State  67:      Singlet-A"    16.5573 eV   74.88 nm  f=0.0039  <S**2>=0.000
       5 -> 18         0.65026
       6 -> 20        -0.23626

 Excited State  68:      Singlet-A'    16.5629 eV   74.86 nm  f=0.1019  <S**2>=0.000
       4 -> 10         0.18058
       5 -> 17         0.66556

 Excited State  69:      Singlet-A'    16.7797 eV   73.89 nm  f=0.0162  <S**2>=0.000
       4 -> 10         0.45518
       5 -> 15         0.10639
       5 -> 17        -0.17258
       5 -> 19         0.18954
       7 -> 20        -0.31905
       7 -> 21        -0.19422
       9 -> 32         0.10220

 Excited State  70:      Singlet-A"    16.8382 eV   73.63 nm  f=0.0071  <S**2>=0.000
       8 -> 26         0.69835

 Excited State  71:      Singlet-A'    17.0113 eV   72.88 nm  f=0.0142  <S**2>=0.000
       7 -> 21        -0.10522
       8 -> 27         0.67453

 Excited State  72:      Singlet-A"    17.1380 eV   72.34 nm  f=0.0058  <S**2>=0.000
       8 -> 28        -0.11269
       9 -> 31         0.69415

 Excited State  73:      Singlet-A'    17.2795 eV   71.75 nm  f=0.0046  <S**2>=0.000
       5 -> 19         0.15177
       7 -> 21         0.61405
       7 -> 23        -0.19596
       9 -> 32         0.12920

 Excited State  74:      Singlet-A"    17.3157 eV   71.60 nm  f=0.0294  <S**2>=0.000
       6 -> 21         0.21032
       7 -> 22        -0.17924
       8 -> 28         0.61421
       9 -> 31         0.11128

 Excited State  75:      Singlet-A'    17.4513 eV   71.05 nm  f=0.0063  <S**2>=0.000
       4 -> 11         0.40350
       5 -> 19         0.11092
       8 -> 29         0.54550
       9 -> 32        -0.10838

 Excited State  76:      Singlet-A"    17.4768 eV   70.94 nm  f=0.0030  <S**2>=0.000
       6 -> 21         0.21882
       7 -> 22         0.65977
       8 -> 28         0.10294

 Excited State  77:      Singlet-A"    17.5168 eV   70.78 nm  f=0.0237  <S**2>=0.000
       6 -> 21         0.60087
       6 -> 23        -0.22972
       7 -> 22        -0.16777
       8 -> 28        -0.21299

 Excited State  78:      Singlet-A'    17.6175 eV   70.38 nm  f=0.0226  <S**2>=0.000
       4 -> 11         0.49667
       5 -> 19        -0.16461
       5 -> 20        -0.13063
       8 -> 29        -0.32375
       8 -> 30        -0.17912
       9 -> 32         0.14538

 Excited State  79:      Singlet-A'    17.7256 eV   69.95 nm  f=0.0636  <S**2>=0.000
       5 -> 19        -0.32453
       6 -> 22         0.34658
       6 -> 24        -0.19003
       7 -> 23         0.33108
       8 -> 29         0.17002
       9 -> 32         0.26514

 Excited State  80:      Singlet-A'    17.7421 eV   69.88 nm  f=0.0928  <S**2>=0.000
       5 -> 19         0.40773
       6 -> 24         0.11500
       7 -> 23         0.49383
       8 -> 29        -0.12848
       8 -> 30        -0.11411

 Excited State  81:      Singlet-A'    17.8024 eV   69.64 nm  f=0.0184  <S**2>=0.000
       5 -> 19         0.13728
       6 -> 22         0.57265
       7 -> 23        -0.21874
       8 -> 30        -0.18114
       9 -> 32        -0.20114

 Excited State  82:      Singlet-A"    17.8189 eV   69.58 nm  f=0.0273  <S**2>=0.000
       7 -> 24         0.69685

 Excited State  83:      Singlet-A"    18.0009 eV   68.88 nm  f=0.0146  <S**2>=0.000
       6 -> 21        -0.10391
       6 -> 23        -0.41523
       9 -> 33         0.54435

 Excited State  84:      Singlet-A'    18.0276 eV   68.77 nm  f=0.0013  <S**2>=0.000
       5 -> 19         0.14171
       5 -> 20         0.17814
       6 -> 24         0.21118
       7 -> 21        -0.13604
       7 -> 23        -0.12273
       9 -> 32         0.52738
       9 -> 35         0.16306

 Excited State  85:      Singlet-A"    18.0794 eV   68.58 nm  f=0.0520  <S**2>=0.000
       6 -> 21         0.14681
       6 -> 23         0.48555
       8 -> 28        -0.11002
       9 -> 33         0.44015

 Excited State  86:      Singlet-A'    18.1021 eV   68.49 nm  f=0.0079  <S**2>=0.000
       5 -> 19         0.12863
       5 -> 20        -0.19663
       6 -> 22         0.13292
       8 -> 29        -0.11208
       8 -> 30         0.60432

 Excited State  87:      Singlet-A'    18.2484 eV   67.94 nm  f=0.0394  <S**2>=0.000
       5 -> 19        -0.18018
       5 -> 20        -0.12719
       6 -> 24         0.61334
       9 -> 35        -0.12295

 Excited State  88:      Singlet-A"    18.4920 eV   67.05 nm  f=0.0014  <S**2>=0.000
       4 -> 12         0.10381
       9 -> 34         0.69750

 Excited State  89:      Singlet-A'    18.5376 eV   66.88 nm  f=0.0522  <S**2>=0.000
       4 -> 13        -0.11080
       5 -> 20         0.36064
       7 -> 25         0.55223
       8 -> 31         0.12043
       9 -> 35        -0.11436

 Excited State  90:      Singlet-A'    18.6847 eV   66.36 nm  f=0.0347  <S**2>=0.000
       4 -> 13         0.55357
       5 -> 20         0.27657
       7 -> 25        -0.15489
       7 -> 27        -0.10997
       9 -> 35        -0.10538

 Excited State  91:      Singlet-A"    18.6965 eV   66.31 nm  f=0.0028  <S**2>=0.000
       4 -> 12         0.65376
       6 -> 23         0.10378
       6 -> 25        -0.17875

 Excited State  92:      Singlet-A'    18.7570 eV   66.10 nm  f=0.0214  <S**2>=0.000
       4 -> 13        -0.30568
       5 -> 20         0.16974
       7 -> 25        -0.31443
       7 -> 27        -0.11315
       8 -> 31         0.46252
       9 -> 35        -0.11262

 Excited State  93:      Singlet-A"    18.8740 eV   65.69 nm  f=0.0645  <S**2>=0.000
       4 -> 12         0.15882
       6 -> 23         0.10300
       6 -> 25         0.67187

 Excited State  94:      Singlet-A'    18.8771 eV   65.68 nm  f=0.0604  <S**2>=0.000
       4 -> 13         0.21771
       4 -> 14        -0.10724
       5 -> 20        -0.28472
       5 -> 21        -0.15524
       6 -> 28         0.11592
       7 -> 25         0.18668
       8 -> 31         0.48836

 Excited State  95:      Singlet-A"    19.2855 eV   64.29 nm  f=0.0055  <S**2>=0.000
       7 -> 26         0.66990
       9 -> 36        -0.17865

 Excited State  96:      Singlet-A'    19.2962 eV   64.25 nm  f=0.0276  <S**2>=0.000
       4 -> 14        -0.12467
       5 -> 21         0.41557
       5 -> 23         0.14088
       7 -> 29         0.15297
       9 -> 35         0.47534

 Excited State  97:      Singlet-A"    19.4027 eV   63.90 nm  f=0.0026  <S**2>=0.000
       8 -> 32         0.67818
       9 -> 36        -0.16526

 Excited State  98:      Singlet-A"    19.4090 eV   63.88 nm  f=0.0001  <S**2>=0.000
       7 -> 26         0.18525
       8 -> 32         0.13828
       9 -> 36         0.65419

 Excited State  99:      Singlet-A'    19.4946 eV   63.60 nm  f=0.0033  <S**2>=0.000
       4 -> 14         0.49336
       4 -> 15        -0.17174
       5 -> 21        -0.28050
       5 -> 23         0.21200
       7 -> 29         0.13410
       8 -> 33         0.10211
       9 -> 35         0.21175

 Excited State 100:      Singlet-A'    19.5357 eV   63.47 nm  f=0.0301  <S**2>=0.000
       4 -> 14        -0.10247
       5 -> 21        -0.15605
       6 -> 26         0.63369
       6 -> 28        -0.10401
       7 -> 27        -0.12740

 Excited State 101:      Singlet-A'    19.6110 eV   63.22 nm  f=0.1500  <S**2>=0.000
       4 -> 14         0.36685
       5 -> 21         0.36730
       6 -> 26         0.25382
       7 -> 27         0.28206
       7 -> 29        -0.16989
       9 -> 35        -0.11455

 Excited State 102:      Singlet-A"    19.6221 eV   63.19 nm  f=0.0001  <S**2>=0.000
       5 -> 22        -0.23597
       6 -> 27         0.47994
       7 -> 28        -0.44874

 Excited State 103:      Singlet-A'    19.6591 eV   63.07 nm  f=0.0148  <S**2>=0.000
       4 -> 14        -0.12352
       7 -> 27         0.21237
       8 -> 33         0.64463

 Excited State 104:      Singlet-A"    19.6646 eV   63.05 nm  f=0.0241  <S**2>=0.000
       5 -> 22         0.59684
       6 -> 27         0.35759

 Excited State 105:      Singlet-A"    19.7193 eV   62.87 nm  f=0.0003  <S**2>=0.000
       5 -> 22        -0.25628
       5 -> 24         0.16409
       6 -> 27         0.31800
       6 -> 29        -0.14466
       7 -> 28         0.51392

 Excited State 106:      Singlet-A'    19.7358 eV   62.82 nm  f=0.0150  <S**2>=0.000
       4 -> 15         0.54989
       5 -> 23         0.38625
       6 -> 28        -0.13251

 Excited State 107:      Singlet-A'    19.8686 eV   62.40 nm  f=0.0603  <S**2>=0.000
       4 -> 14        -0.19838
       4 -> 15        -0.18967
       5 -> 21        -0.13477
       5 -> 23         0.21549
       5 -> 25        -0.11145
       6 -> 28        -0.11743
       7 -> 27         0.37117
       7 -> 29        -0.22520
       8 -> 33        -0.24420
       8 -> 36        -0.14320
       9 -> 35         0.10849

 Excited State 108:      Singlet-A"    20.0372 eV   61.88 nm  f=0.0156  <S**2>=0.000
       4 -> 16        -0.10129
       5 -> 24         0.63801
       6 -> 29         0.25898

 Excited State 109:      Singlet-A'    20.0973 eV   61.69 nm  f=0.1133  <S**2>=0.000
       4 -> 15         0.20758
       5 -> 23        -0.26287
       7 -> 27         0.33511

 The electronic state is 1-A'.
 Alpha  occ. eigenvalues --  -18.79355  -9.96821  -0.92290  -0.61025  -0.46012
 Alpha  occ. eigenvalues --   -0.39033  -0.38025  -0.29043  -0.23032
 Alpha virt. eigenvalues --   -0.00853   0.02432   0.06956   0.07001   0.10304
 Alpha virt. eigenvalues --    0.10948   0.12240   0.14627   0.14688   0.18087
 Alpha virt. eigenvalues --    0.21275   0.24984   0.26205   0.26569   0.27511

 Mulliken charges:
               1
     1  C    0.934337
     2  O   -0.344010
     3  H   -0.201479
     4  H   -0.201479
     5  H   -0.293645
     6  H    0.106276
 Sum of Mulliken charges =  -0.00000

 Dipole moment (field-independent basis, Debye):
    X=             -1.3405    Y=              0.9226    Z=              0.0000  Tot=              1.6273
 Quadrupole moment (field-independent basis, Debye-Ang):
   XX=            -12.1806   YY=            -13.7966   ZZ=            -14.1893
   XY=              2.0876   XZ=              0.0000   YZ=             -0.0000

 Normal termination of Gaussian 16 at Mon Mar 21 19:58:17 2022.
