 Gaussian 16, Revision C.01,
 Gaussian 16:  EM64L-G16RevC.01  3-Jul-2019

 --------------------------------------------------------------------
 #P TD(Nstates=10000) blyp/Gen SCF(maxcycles=100) Int(Grid=ultrafine)
 --------------------------------------------------------------------

 ---------------------
 xGDB7_00001_tier4.com
 ---------------------
 Symbolic Z-matrix:
 Charge =  0 Multiplicity = 1

                         Standard orientation:
 ---------------------------------------------------------------------
 Center     Atomic      Atomic             Coordinates (Angstroms)
 Number     Number       Type             X           Y           Z
 ---------------------------------------------------------------------
      1          7           0       -0.000002   -0.000000   -0.110463
      2          1           0       -0.147185    0.930214    0.257758
      3          1           0       -0.731998   -0.592574    0.257757
      4          1           0        0.879196   -0.337638    0.257728
 ---------------------------------------------------------------------

 SCF Done:  E(RB-LYP) =  -56.4962397761     A.U. after   10 cycles

 Excitation energies and oscillator strengths:

 Excited State   1:      Singlet-A      6.2690 eV  197.77 nm  f=0.0759  <S**2>=0.000
       5 ->  6         0.70649
 This state for optimization and/or second-order correction.
 Total Energy, E(TD-HF/TD-DFT) =  -56.2658567680
 Copying the excited state density for this state as the 1-particle RhoCI density.

 Excited State   2:      Singlet-A      8.4028 eV  147.55 nm  f=0.0166  <S**2>=0.000
       5 ->  7         0.70469

 Excited State   3:      Singlet-A      8.4028 eV  147.55 nm  f=0.0166  <S**2>=0.000
       5 ->  8         0.70469

 Excited State   4:      Singlet-A     10.0220 eV  123.71 nm  f=0.0002  <S**2>=0.000
       5 ->  9         0.70613

 Excited State   5:      Singlet-A     10.0220 eV  123.71 nm  f=0.0002  <S**2>=0.000
       5 -> 10         0.70613

 Excited State   6:      Singlet-A     10.9562 eV  113.16 nm  f=0.0443  <S**2>=0.000
       3 ->  7        -0.10518
       4 ->  8        -0.10518
       5 -> 11         0.66655
       5 -> 12         0.16979

 Excited State   7:      Singlet-A     11.5618 eV  107.24 nm  f=0.0243  <S**2>=0.000
       4 ->  6         0.61689
       5 -> 14        -0.34215

 Excited State   8:      Singlet-A     11.5618 eV  107.24 nm  f=0.0243  <S**2>=0.000
       3 ->  6         0.61683
       5 -> 13        -0.34225

 Excited State   9:      Singlet-A     11.8121 eV  104.96 nm  f=0.2232  <S**2>=0.000
       3 ->  6         0.22855
       4 ->  6        -0.25088
       5 -> 13         0.44937
       5 -> 14        -0.41097

 Excited State  10:      Singlet-A     11.8121 eV  104.96 nm  f=0.2232  <S**2>=0.000
       3 ->  6         0.25095
       4 ->  6         0.22848
       5 -> 13         0.41093
       5 -> 14         0.44941

 Excited State  11:      Singlet-A     11.9922 eV  103.39 nm  f=0.1795  <S**2>=0.000
       3 ->  7         0.11924
       4 ->  8         0.11924
       5 -> 11        -0.13041
       5 -> 12         0.66889

 Excited State  12:      Singlet-A     13.5624 eV   91.42 nm  f=0.0000  <S**2>=0.000
       3 ->  7         0.15194
       3 ->  8        -0.47621
       4 ->  7         0.47647
       4 ->  8         0.15200

 Excited State  13:      Singlet-A     13.7130 eV   90.41 nm  f=0.0799  <S**2>=0.000
       3 ->  7        -0.39900
       3 ->  8        -0.28683
       4 ->  7        -0.28674
       4 ->  8         0.39904

 Excited State  14:      Singlet-A     13.7130 eV   90.41 nm  f=0.0799  <S**2>=0.000
       3 ->  7        -0.28682
       3 ->  8         0.39914
       4 ->  7         0.39891
       4 ->  8         0.28675

 Excited State  15:      Singlet-A     15.0939 eV   82.14 nm  f=0.0005  <S**2>=0.000
       3 ->  7         0.27342
       4 ->  8         0.27342
       5 -> 11         0.11524
       5 -> 15         0.53002

 Excited State  16:      Singlet-A     15.2135 eV   81.50 nm  f=0.0000  <S**2>=0.000
       3 ->  9         0.28365
       4 -> 10        -0.28368
       5 -> 16         0.58208

 Excited State  17:      Singlet-A     15.2728 eV   81.18 nm  f=0.0000  <S**2>=0.000
       3 ->  9        -0.41137
       4 -> 10         0.41142
       5 -> 16         0.40140

 Excited State  18:      Singlet-A     15.3786 eV   80.62 nm  f=0.0318  <S**2>=0.000
       3 ->  7        -0.18866
       3 -> 10        -0.35297
       4 ->  8        -0.18867
       4 ->  9        -0.35306
       5 -> 15         0.38608

 Excited State  19:      Singlet-A     15.4717 eV   80.14 nm  f=0.0343  <S**2>=0.000
       3 ->  7        -0.27406
       3 -> 10         0.33649
       4 ->  8        -0.27404
       4 ->  9         0.33659
       5 -> 11        -0.10844
       5 -> 15         0.25894

 Excited State  20:      Singlet-A     15.5789 eV   79.58 nm  f=0.0199  <S**2>=0.000
       3 -> 10        -0.25772
       4 ->  9         0.25764
       4 -> 11         0.56733
       5 -> 17        -0.18475

 Excited State  21:      Singlet-A     15.5790 eV   79.58 nm  f=0.0199  <S**2>=0.000
       3 ->  9        -0.25770
       3 -> 11         0.56731
       4 -> 10        -0.25767
       5 -> 18         0.18479

 Excited State  22:      Singlet-A     15.8153 eV   78.40 nm  f=0.1937  <S**2>=0.000
       3 -> 10         0.29045
       4 ->  9        -0.29037
       4 -> 11         0.40506
       5 -> 17         0.38417

 Excited State  23:      Singlet-A     15.8153 eV   78.39 nm  f=0.1937  <S**2>=0.000
       3 ->  9         0.29042
       3 -> 11         0.40509
       4 -> 10         0.29039
       5 -> 18        -0.38415

 Excited State  24:      Singlet-A     16.2132 eV   76.47 nm  f=0.1271  <S**2>=0.000
       3 -> 10        -0.26120
       4 ->  9         0.26112
       4 -> 12         0.18250
       5 -> 17         0.53360

 Excited State  25:      Singlet-A     16.2132 eV   76.47 nm  f=0.1271  <S**2>=0.000
       3 ->  9         0.26118
       3 -> 12        -0.18251
       4 -> 10         0.26115
       5 -> 18         0.53360

 Excited State  26:      Singlet-A     16.8991 eV   73.37 nm  f=0.0063  <S**2>=0.000
       3 -> 13         0.45276
       3 -> 14         0.14090
       4 -> 12        -0.22083
       4 -> 13         0.14122
       4 -> 14        -0.45275

 Excited State  27:      Singlet-A     16.8991 eV   73.37 nm  f=0.0063  <S**2>=0.000
       3 -> 12        -0.22063
       3 -> 13        -0.14104
       3 -> 14         0.45218
       4 -> 13         0.45341
       4 -> 14         0.14114

 Excited State  28:      Singlet-A     16.9332 eV   73.22 nm  f=0.0000  <S**2>=0.000
       3 -> 14         0.49851
       4 -> 13        -0.49728

 Excited State  29:      Singlet-A     17.1362 eV   72.35 nm  f=0.1121  <S**2>=0.000
       3 -> 10         0.10287
       3 -> 13         0.13806
       4 ->  9        -0.10285
       4 -> 12         0.63352
       4 -> 14        -0.13816
       5 -> 20        -0.10494

 Excited State  30:      Singlet-A     17.1363 eV   72.35 nm  f=0.1121  <S**2>=0.000
       3 ->  9         0.10286
       3 -> 12         0.63358
       3 -> 14         0.13798
       4 -> 10         0.10284
       4 -> 13         0.13800
       5 -> 19        -0.10495

 Excited State  31:      Singlet-A     17.3291 eV   71.55 nm  f=0.2815  <S**2>=0.000
       3 -> 13         0.48555
       4 -> 14         0.48550
       5 -> 21         0.10570

 Excited State  32:      Singlet-A     18.5349 eV   66.89 nm  f=0.0952  <S**2>=0.000
       5 -> 19        -0.13267
       5 -> 20         0.67451

 Excited State  33:      Singlet-A     18.5349 eV   66.89 nm  f=0.0952  <S**2>=0.000
       5 -> 19         0.67451
       5 -> 20         0.13267

 Excited State  34:      Singlet-A     20.4940 eV   60.50 nm  f=0.0001  <S**2>=0.000
       3 -> 15         0.30928
       4 -> 16         0.63308

 Excited State  35:      Singlet-A     20.4941 eV   60.50 nm  f=0.0001  <S**2>=0.000
       3 -> 16         0.63284
       4 -> 15        -0.30976

 Excited State  36:      Singlet-A     20.5624 eV   60.30 nm  f=0.0352  <S**2>=0.000
       3 -> 16         0.31340
       4 -> 15         0.61842

 Excited State  37:      Singlet-A     20.5625 eV   60.30 nm  f=0.0352  <S**2>=0.000
       3 -> 15         0.61865
       4 -> 16        -0.31291

 Excited State  38:      Singlet-A     20.8552 eV   59.45 nm  f=0.1353  <S**2>=0.000
       2 ->  6         0.35866
       3 -> 18        -0.21982
       4 -> 17         0.21993
       5 -> 21         0.51144

 Excited State  39:      Singlet-A     20.9223 eV   59.26 nm  f=0.0378  <S**2>=0.000
       3 -> 17         0.19374
       4 -> 18        -0.19377
       5 -> 22         0.64547

 Excited State  40:      Singlet-A     20.9223 eV   59.26 nm  f=0.0378  <S**2>=0.000
       3 -> 18        -0.19381
       4 -> 17        -0.19370
       5 -> 23         0.64547

 Excited State  41:      Singlet-A     21.1912 eV   58.51 nm  f=0.0000  <S**2>=0.000
       3 -> 17         0.48150
       3 -> 18        -0.13463
       4 -> 17         0.13463
       4 -> 18         0.48150

 Excited State  42:      Singlet-A     21.3503 eV   58.07 nm  f=0.1175  <S**2>=0.000
       2 ->  6         0.50843
       3 -> 18        -0.10059
       3 -> 19         0.10596
       4 -> 17         0.10062
       4 -> 20         0.10596
       5 -> 21        -0.42489

 Excited State  43:      Singlet-A     21.7894 eV   56.90 nm  f=0.2174  <S**2>=0.000
       3 -> 17         0.43379
       4 -> 18        -0.43377
       5 -> 22        -0.22977

 Excited State  44:      Singlet-A     21.7894 eV   56.90 nm  f=0.2174  <S**2>=0.000
       3 -> 18         0.43379
       4 -> 17         0.43377
       5 -> 23         0.22978

 Excited State  45:      Singlet-A     23.4435 eV   52.89 nm  f=0.0483  <S**2>=0.000
       2 ->  7         0.66378
       3 -> 20        -0.13439
       4 -> 19        -0.13444

 Excited State  46:      Singlet-A     23.4435 eV   52.89 nm  f=0.0483  <S**2>=0.000
       2 ->  8         0.66378
       3 -> 19        -0.13441
       4 -> 20         0.13442

 Excited State  47:      Singlet-A     23.5880 eV   52.56 nm  f=0.1466  <S**2>=0.000
       2 ->  6         0.26107
       2 -> 11         0.11664
       2 -> 15         0.11008
       3 -> 17         0.10199
       3 -> 18         0.36480
       3 -> 22         0.13647
       4 -> 17        -0.36480
       4 -> 18         0.10200
       4 -> 23         0.13645
       5 -> 21         0.14688
       5 -> 27         0.10185

 Excited State  48:      Singlet-A     23.6661 eV   52.39 nm  f=0.0000  <S**2>=0.000
       3 -> 20        -0.49719
       4 -> 19         0.49725

 Excited State  49:      Singlet-A     23.9655 eV   51.73 nm  f=0.0292  <S**2>=0.000
       2 ->  7         0.19313
       3 -> 19        -0.17717
       3 -> 20         0.41788
       3 -> 23        -0.10187
       4 -> 19         0.41780
       4 -> 20         0.17718
       4 -> 22        -0.10187

 Excited State  50:      Singlet-A     23.9655 eV   51.73 nm  f=0.0292  <S**2>=0.000
       2 ->  8        -0.19313
       3 -> 19        -0.41780
       3 -> 20        -0.17718
       3 -> 22         0.10186
       4 -> 19        -0.17716
       4 -> 20         0.41786
       4 -> 23        -0.10187

 Excited State  51:      Singlet-A     24.3031 eV   51.02 nm  f=0.0742  <S**2>=0.000
       2 ->  6        -0.12405
       3 -> 19         0.46870
       4 -> 20         0.46863

 Excited State  52:      Singlet-A     25.0309 eV   49.53 nm  f=0.0028  <S**2>=0.000
       2 ->  9         0.70338

 Excited State  53:      Singlet-A     25.0310 eV   49.53 nm  f=0.0028  <S**2>=0.000
       2 -> 10         0.70338

 Excited State  54:      Singlet-A     25.3747 eV   48.86 nm  f=0.0136  <S**2>=0.000
       2 -> 11         0.67821
       3 -> 22        -0.10424
       4 -> 23        -0.10425

 Excited State  55:      Singlet-A     25.7407 eV   48.17 nm  f=0.0004  <S**2>=0.000
       3 -> 22        -0.15519
       4 -> 21         0.66948
       4 -> 23         0.15521

 Excited State  56:      Singlet-A     25.7407 eV   48.17 nm  f=0.0004  <S**2>=0.000
       3 -> 21         0.66949
       3 -> 23        -0.15518
       4 -> 22        -0.15521

 Excited State  57:      Singlet-A     26.1164 eV   47.47 nm  f=0.0000  <S**2>=0.000
       3 -> 23        -0.49992
       4 -> 22         0.49994

 Excited State  58:      Singlet-A     26.2857 eV   47.17 nm  f=0.0020  <S**2>=0.000
       2 -> 12        -0.33978
       5 -> 24         0.61441

 Excited State  59:      Singlet-A     26.5495 eV   46.70 nm  f=0.0074  <S**2>=0.000
       2 -> 13         0.69957

 Excited State  60:      Singlet-A     26.5495 eV   46.70 nm  f=0.0074  <S**2>=0.000
       2 -> 14         0.69957

 Excited State  61:      Singlet-A     26.6929 eV   46.45 nm  f=0.1836  <S**2>=0.000
       2 -> 12         0.44568
       2 -> 15        -0.11497
       3 -> 22         0.33109
       4 -> 23         0.33112
       5 -> 24         0.18439

 Excited State  62:      Singlet-A     27.2217 eV   45.55 nm  f=0.4161  <S**2>=0.000
       3 -> 22        -0.43591
       4 -> 21        -0.19458
       4 -> 23         0.43623

 Excited State  63:      Singlet-A     27.2218 eV   45.55 nm  f=0.4161  <S**2>=0.000
       3 -> 21         0.19457
       3 -> 23         0.43609
       4 -> 22         0.43606

 Excited State  64:      Singlet-A     27.2580 eV   45.49 nm  f=0.1956  <S**2>=0.000
       2 -> 11        -0.11786
       2 -> 12         0.41343
       3 -> 22        -0.32056
       4 -> 23        -0.32006
       5 -> 21         0.10108
       5 -> 24         0.28150

 Excited State  65:      Singlet-A     30.1049 eV   41.18 nm  f=0.0000  <S**2>=0.000
       2 -> 16         0.70708

 Excited State  66:      Singlet-A     30.6242 eV   40.49 nm  f=0.0035  <S**2>=0.000
       2 -> 17         0.13884
       5 -> 25         0.68593

 Excited State  67:      Singlet-A     30.6242 eV   40.49 nm  f=0.0035  <S**2>=0.000
       2 -> 18         0.13884
       5 -> 26         0.68593

 Excited State  68:      Singlet-A     30.6397 eV   40.47 nm  f=0.0442  <S**2>=0.000
       2 -> 15         0.66575
       5 -> 27        -0.17136

 Excited State  69:      Singlet-A     31.1871 eV   39.75 nm  f=0.0016  <S**2>=0.000
       2 -> 17         0.64901
       4 -> 24         0.20079
       5 -> 25        -0.15802

 Excited State  70:      Singlet-A     31.1871 eV   39.75 nm  f=0.0016  <S**2>=0.000
       2 -> 18         0.64901
       3 -> 24        -0.20078
       5 -> 26        -0.15802

 Excited State  71:      Singlet-A     32.4791 eV   38.17 nm  f=0.1273  <S**2>=0.000
       2 -> 17        -0.20734
       2 -> 20        -0.21151
       4 -> 24         0.62368

 Excited State  72:      Singlet-A     32.4791 eV   38.17 nm  f=0.1273  <S**2>=0.000
       2 -> 18         0.20734
       2 -> 19        -0.21153
       3 -> 24         0.62368

 Excited State  73:      Singlet-A     33.4838 eV   37.03 nm  f=0.0024  <S**2>=0.000
       2 -> 19        -0.11695
       2 -> 20         0.65971
       4 -> 24         0.18131

 Excited State  74:      Singlet-A     33.4838 eV   37.03 nm  f=0.0024  <S**2>=0.000
       2 -> 19         0.65970
       2 -> 20         0.11695
       3 -> 24         0.18133

 Excited State  75:      Singlet-A     34.7330 eV   35.70 nm  f=0.0208  <S**2>=0.000
       2 -> 21        -0.14405
       3 -> 26        -0.26367
       4 -> 25         0.26368
       5 -> 27         0.55972

 Excited State  76:      Singlet-A     35.5667 eV   34.86 nm  f=0.0222  <S**2>=0.000
       2 -> 21         0.68842

 Excited State  77:      Singlet-A     35.8639 eV   34.57 nm  f=0.0000  <S**2>=0.000
       3 -> 25         0.48369
       3 -> 26        -0.12650
       4 -> 25         0.12652
       4 -> 26         0.48371

 Excited State  78:      Singlet-A     36.0086 eV   34.43 nm  f=0.0152  <S**2>=0.000
       2 -> 22         0.70072

 Excited State  79:      Singlet-A     36.0086 eV   34.43 nm  f=0.0152  <S**2>=0.000
       2 -> 23         0.70072

 Excited State  80:      Singlet-A     36.5110 eV   33.96 nm  f=0.0414  <S**2>=0.000
       3 -> 25         0.47547
       4 -> 26        -0.47545
       5 -> 29        -0.10373

 Excited State  81:      Singlet-A     36.5110 eV   33.96 nm  f=0.0414  <S**2>=0.000
       3 -> 26         0.47546
       4 -> 25         0.47546
       5 -> 28         0.10373

 Excited State  82:      Singlet-A     38.4521 eV   32.24 nm  f=0.0113  <S**2>=0.000
       4 -> 27         0.69701
       5 -> 28        -0.11512

 Excited State  83:      Singlet-A     38.4522 eV   32.24 nm  f=0.0113  <S**2>=0.000
       3 -> 27         0.69701
       5 -> 29        -0.11512

 Excited State  84:      Singlet-A     38.7338 eV   32.01 nm  f=0.0117  <S**2>=0.000
       2 -> 24         0.34180
       3 -> 26         0.33649
       3 -> 29         0.11279
       4 -> 25        -0.33649
       4 -> 28         0.11279
       5 -> 27         0.28755

 Excited State  85:      Singlet-A     38.9472 eV   31.83 nm  f=0.0534  <S**2>=0.000
       4 -> 27         0.11650
       5 -> 28         0.68479

 Excited State  86:      Singlet-A     38.9472 eV   31.83 nm  f=0.0534  <S**2>=0.000
       3 -> 27         0.11651
       5 -> 29         0.68479

 Excited State  87:      Singlet-A     42.4514 eV   29.21 nm  f=0.0134  <S**2>=0.000
       2 -> 24         0.49743
       3 -> 26        -0.10122
       3 -> 29        -0.22043
       4 -> 25         0.10122
       4 -> 28        -0.22046
       5 -> 30         0.34278

 Excited State  88:      Singlet-A     42.8817 eV   28.91 nm  f=0.0732  <S**2>=0.000
       2 -> 24        -0.27775
       5 -> 30         0.61512

 Excited State  89:      Singlet-A     43.9573 eV   28.21 nm  f=0.0000  <S**2>=0.000
       3 -> 28        -0.49614
       4 -> 29         0.49614

 Excited State  90:      Singlet-A     44.4187 eV   27.91 nm  f=0.0259  <S**2>=0.000
       3 -> 28         0.43452
       3 -> 29        -0.23730
       4 -> 28         0.23729
       4 -> 29         0.43451

 Excited State  91:      Singlet-A     44.4187 eV   27.91 nm  f=0.0259  <S**2>=0.000
       3 -> 28         0.23729
       3 -> 29         0.43452
       4 -> 28        -0.43451
       4 -> 29         0.23730

 Excited State  92:      Singlet-A     45.9521 eV   26.98 nm  f=0.0451  <S**2>=0.000
       2 -> 25         0.70326

 Excited State  93:      Singlet-A     45.9522 eV   26.98 nm  f=0.0451  <S**2>=0.000
       2 -> 26         0.70326

 Excited State  94:      Singlet-A     47.5749 eV   26.06 nm  f=0.0098  <S**2>=0.000
       2 -> 24         0.21162
       2 -> 27         0.27933
       2 -> 30        -0.11951
       3 -> 26        -0.11148
       3 -> 29         0.37722
       4 -> 25         0.11148
       4 -> 28         0.37722
       5 -> 27        -0.15559

 Excited State  95:      Singlet-A     48.0683 eV   25.79 nm  f=0.0001  <S**2>=0.000
       4 -> 30         0.70266

 Excited State  96:      Singlet-A     48.0684 eV   25.79 nm  f=0.0001  <S**2>=0.000
       3 -> 30         0.70266

 Excited State  97:      Singlet-A     48.5313 eV   25.55 nm  f=0.1509  <S**2>=0.000
       2 -> 27         0.64791
       3 -> 29        -0.15412
       4 -> 28        -0.15412

 Excited State  98:      Singlet-A     51.1091 eV   24.26 nm  f=0.0000  <S**2>=0.000
       5 -> 31         0.70705

 Excited State  99:      Singlet-A     51.7315 eV   23.97 nm  f=0.0475  <S**2>=0.000
       5 -> 32         0.69456

 Excited State 100:      Singlet-A     51.7316 eV   23.97 nm  f=0.0475  <S**2>=0.000
       5 -> 33         0.69456

 Excited State 101:      Singlet-A     54.0105 eV   22.96 nm  f=0.0441  <S**2>=0.000
       2 -> 28         0.69448

 Excited State 102:      Singlet-A     54.0106 eV   22.96 nm  f=0.0441  <S**2>=0.000
       2 -> 29         0.69448

 Excited State 103:      Singlet-A     56.6622 eV   21.88 nm  f=0.0060  <S**2>=0.000
       3 -> 32        -0.19645
       4 -> 33        -0.19642
       5 -> 34         0.64136

 Excited State 104:      Singlet-A     56.6940 eV   21.87 nm  f=0.0000  <S**2>=0.000
       3 -> 33        -0.49794
       4 -> 32         0.49808

 Excited State 105:      Singlet-A     56.7825 eV   21.83 nm  f=0.0202  <S**2>=0.000
       4 -> 31         0.68503

 Excited State 106:      Singlet-A     56.7825 eV   21.83 nm  f=0.0201  <S**2>=0.000
       3 -> 31         0.68503

 Excited State 107:      Singlet-A     57.0935 eV   21.72 nm  f=0.0981  <S**2>=0.000
       3 -> 32        -0.15754
       3 -> 33         0.45745
       4 -> 31        -0.12642
       4 -> 32         0.45723
       4 -> 33         0.15752

 Excited State 108:      Singlet-A     57.0936 eV   21.72 nm  f=0.0981  <S**2>=0.000
       3 -> 31         0.12643
       3 -> 32         0.45734
       3 -> 33         0.15757
       4 -> 32         0.15749
       4 -> 33        -0.45734

 Excited State 109:      Singlet-A     57.6328 eV   21.51 nm  f=0.2512  <S**2>=0.000
       2 -> 30        -0.27635
       3 -> 32         0.40607
       4 -> 33         0.40607
       5 -> 34         0.27792

 Excited State 110:      Singlet-A     58.9474 eV   21.03 nm  f=0.0370  <S**2>=0.000
       3 -> 34        -0.10528
       5 -> 35         0.69212

 Excited State 111:      Singlet-A     58.9475 eV   21.03 nm  f=0.0370  <S**2>=0.000
       4 -> 34        -0.10528
       5 -> 36         0.69212

 Excited State 112:      Singlet-A     59.2739 eV   20.92 nm  f=0.1306  <S**2>=0.000
       2 -> 30         0.62393
       3 -> 32         0.20048
       4 -> 33         0.20048

 Excited State 113:      Singlet-A     61.6308 eV   20.12 nm  f=0.0193  <S**2>=0.000
       4 -> 34         0.69078

 Excited State 114:      Singlet-A     61.6309 eV   20.12 nm  f=0.0193  <S**2>=0.000
       3 -> 34         0.69078

 Excited State 115:      Singlet-A     62.8779 eV   19.72 nm  f=0.0085  <S**2>=0.000
       3 -> 35        -0.16774
       4 -> 36         0.16774
       5 -> 37         0.65720

 Excited State 116:      Singlet-A     62.8779 eV   19.72 nm  f=0.0085  <S**2>=0.000
       3 -> 36         0.16773
       4 -> 35         0.16776
       5 -> 38         0.65719

 Excited State 117:      Singlet-A     64.3045 eV   19.28 nm  f=0.0000  <S**2>=0.000
       3 -> 36        -0.49287
       4 -> 35         0.49465

 Excited State 118:      Singlet-A     64.3473 eV   19.27 nm  f=0.0732  <S**2>=0.000
       3 -> 35         0.43933
       3 -> 36         0.15127
       4 -> 35         0.15061
       4 -> 36        -0.43922
       5 -> 37         0.20188

 Excited State 119:      Singlet-A     64.3474 eV   19.27 nm  f=0.0732  <S**2>=0.000
       3 -> 35        -0.15117
       3 -> 36         0.44015
       4 -> 35         0.43840
       4 -> 36         0.15071

 The electronic state is 1-A.
 Alpha  occ. eigenvalues --  -14.00380  -0.76305  -0.41336  -0.41336  -0.21967
 Alpha virt. eigenvalues --    0.00365   0.08497   0.08497   0.15033   0.15034
 Alpha virt. eigenvalues --    0.16082   0.20848   0.20906   0.20906   0.33600
 Alpha virt. eigenvalues --    0.34394   0.36549   0.36549   0.45841   0.45841

 Mulliken charges:
               1
     1  N    0.272273
     2  H   -0.090758
     3  H   -0.090759
     4  H   -0.090756
 Sum of Mulliken charges =  -0.00000

 Dipole moment (field-independent basis, Debye):
    X=              0.0000    Y=             -0.0000    Z=              1.4728  Tot=              1.4728
 Quadrupole moment (field-independent basis, Debye-Ang):
   XX=             -6.5025   YY=             -6.5025   ZZ=             -9.3806
   XY=              0.0000   XZ=             -0.0001   YZ=              0.0000

 Normal termination of Gaussian 16 at Mon Mar 21 20:03:08 2022.
