 Gaussian 16, Revision C.01,
 Gaussian 16:  EM64L-G16RevC.01  3-Jul-2019

 --------------------------------------------------------------------
 #P TD(Nstates=10000) blyp/Gen SCF(maxcycles=100) Int(Grid=ultrafine)
 --------------------------------------------------------------------

 ---------------------
 xGDB7_00001_tier4.com
 ---------------------
 Symbolic Z-matrix:
 Charge =  0 Multiplicity = 1

                         Standard orientation:
 ---------------------------------------------------------------------
 Center     Atomic      Atomic             Coordinates (Angstroms)
 Number     Number       Type             X           Y           Z
 ---------------------------------------------------------------------
      1          8           0       -1.023805   -0.438791    0.000000
      2          6           0       -0.000000    0.418952    0.000000
      3          8           0        1.152985    0.109982   -0.000000
      4          1           0       -0.656943   -1.333011    0.000000
      5          1           0       -0.376498    1.449770    0.000000
 ---------------------------------------------------------------------

 SCF Done:  E(RB-LYP) =  -189.605989909     A.U. after   14 cycles

 Excitation energies and oscillator strengths:

 Excited State   1:      Singlet-A"     5.6904 eV  217.88 nm  f=0.0007  <S**2>=0.000
      12 -> 13         0.70686
 This state for optimization and/or second-order correction.
 Total Energy, E(TD-HF/TD-DFT) =  -189.396870514
 Copying the excited state density for this state as the 1-particle RhoCI density.

 Excited State   2:      Singlet-A'     6.7641 eV  183.30 nm  f=0.0421  <S**2>=0.000
      11 -> 13        -0.15922
      12 -> 14         0.68760

 Excited State   3:      Singlet-A'     7.5532 eV  164.15 nm  f=0.0502  <S**2>=0.000
      12 -> 15         0.70318

 Excited State   4:      Singlet-A"     7.9616 eV  155.73 nm  f=0.0032  <S**2>=0.000
      11 -> 14         0.70613

 Excited State   5:      Singlet-A'     8.3424 eV  148.62 nm  f=0.1972  <S**2>=0.000
      11 -> 13         0.63389
      12 -> 14         0.14488
      12 -> 16         0.17092

 Excited State   6:      Singlet-A"     8.7275 eV  142.06 nm  f=0.0001  <S**2>=0.000
      10 -> 13         0.69496
      11 -> 15        -0.10452

 Excited State   7:      Singlet-A"     8.7804 eV  141.21 nm  f=0.0002  <S**2>=0.000
      10 -> 13         0.10680
      11 -> 15         0.69798

 Excited State   8:      Singlet-A'     8.8495 eV  140.10 nm  f=0.0803  <S**2>=0.000
      11 -> 13        -0.13879
      12 -> 16         0.67456
      12 -> 18         0.10206

 Excited State   9:      Singlet-A"     8.8583 eV  139.96 nm  f=0.0176  <S**2>=0.000
      12 -> 17         0.70413

 Excited State  10:      Singlet-A'     9.4729 eV  130.88 nm  f=0.0102  <S**2>=0.000
      12 -> 18         0.69372

 Excited State  11:      Singlet-A'     9.7477 eV  127.19 nm  f=0.0549  <S**2>=0.000
      10 -> 14         0.69488

 Excited State  12:      Singlet-A'    10.0030 eV  123.95 nm  f=0.0047  <S**2>=0.000
      11 -> 17        -0.24918
      12 -> 19         0.63873

 Excited State  13:      Singlet-A"    10.0274 eV  123.64 nm  f=0.0219  <S**2>=0.000
      11 -> 16         0.70344

 Excited State  14:      Singlet-A'    10.2319 eV  121.17 nm  f=0.0036  <S**2>=0.000
      10 -> 15         0.10924
      11 -> 17         0.55483
      12 -> 19         0.18047
      12 -> 20        -0.36455

 Excited State  15:      Singlet-A'    10.3035 eV  120.33 nm  f=0.0049  <S**2>=0.000
      11 -> 17         0.32688
      12 -> 19         0.13888
      12 -> 20         0.60098

 Excited State  16:      Singlet-A"    10.4702 eV  118.42 nm  f=0.0048  <S**2>=0.000
      12 -> 21         0.70616

 Excited State  17:      Singlet-A'    10.5663 eV  117.34 nm  f=0.0535  <S**2>=0.000
      10 -> 15         0.68808

 Excited State  18:      Singlet-A"    10.6954 eV  115.92 nm  f=0.0007  <S**2>=0.000
       8 -> 13         0.10357
      11 -> 18         0.69781

 Excited State  19:      Singlet-A"    10.9087 eV  113.66 nm  f=0.0040  <S**2>=0.000
       7 -> 13         0.10247
       8 -> 13         0.67432

 Excited State  20:      Singlet-A"    11.0356 eV  112.35 nm  f=0.0406  <S**2>=0.000
       9 -> 14         0.69968

 Excited State  21:      Singlet-A'    11.1360 eV  111.34 nm  f=0.0572  <S**2>=0.000
      12 -> 22         0.69566

 Excited State  22:      Singlet-A"    11.2014 eV  110.69 nm  f=0.0001  <S**2>=0.000
      11 -> 19         0.70602

 Excited State  23:      Singlet-A'    11.2768 eV  109.95 nm  f=0.0604  <S**2>=0.000
       9 -> 13         0.61129
      11 -> 21         0.22324
      12 -> 24        -0.11883

 Excited State  24:      Singlet-A"    11.5473 eV  107.37 nm  f=0.0007  <S**2>=0.000
       7 -> 13         0.13564
      11 -> 20         0.68217
      12 -> 23         0.11690

 Excited State  25:      Singlet-A'    11.6266 eV  106.64 nm  f=0.0214  <S**2>=0.000
       8 -> 14         0.68894

 Excited State  26:      Singlet-A"    11.6710 eV  106.23 nm  f=0.0001  <S**2>=0.000
      11 -> 20        -0.11904
      12 -> 23         0.68874

 Excited State  27:      Singlet-A'    11.7596 eV  105.43 nm  f=0.0157  <S**2>=0.000
      10 -> 16         0.61304
      11 -> 21         0.34127

 Excited State  28:      Singlet-A"    11.8146 eV  104.94 nm  f=0.0234  <S**2>=0.000
       7 -> 13         0.46448
       9 -> 15         0.47784
      10 -> 17        -0.20326

 Excited State  29:      Singlet-A"    11.8458 eV  104.66 nm  f=0.0184  <S**2>=0.000
       9 -> 15         0.18754
      10 -> 17         0.67193

 Excited State  30:      Singlet-A"    11.9022 eV  104.17 nm  f=0.0006  <S**2>=0.000
       7 -> 13        -0.48335
       9 -> 15         0.48358

 Excited State  31:      Singlet-A'    12.0075 eV  103.26 nm  f=0.0204  <S**2>=0.000
       8 -> 15         0.10640
       9 -> 13        -0.17352
      10 -> 16        -0.32024
      10 -> 18         0.13829
      11 -> 21         0.53578
      12 -> 24         0.16255

 Excited State  32:      Singlet-A'    12.2786 eV  100.98 nm  f=0.0451  <S**2>=0.000
       7 -> 14         0.11520
       8 -> 15        -0.18649
       9 -> 13         0.10712
      12 -> 24         0.63103

 Excited State  33:      Singlet-A"    12.4320 eV   99.73 nm  f=0.0000  <S**2>=0.000
      11 -> 22         0.70316

 Excited State  34:      Singlet-A'    12.4544 eV   99.55 nm  f=0.0103  <S**2>=0.000
       8 -> 15         0.62525
      10 -> 18        -0.29029
      12 -> 24         0.10167

 Excited State  35:      Singlet-A'    12.6294 eV   98.17 nm  f=0.0495  <S**2>=0.000
       8 -> 15         0.23481
       9 -> 17        -0.16494
      10 -> 18         0.58887
      11 -> 21        -0.12306
      12 -> 24         0.10523
      12 -> 25        -0.10115

 Excited State  36:      Singlet-A'    12.8139 eV   96.76 nm  f=0.0373  <S**2>=0.000
       7 -> 14         0.63565
      10 -> 19        -0.19930
      11 -> 23         0.16681
      12 -> 25         0.10435

 Excited State  37:      Singlet-A'    12.9419 eV   95.80 nm  f=0.0669  <S**2>=0.000
       7 -> 14         0.17366
      10 -> 19         0.65640
      12 -> 25         0.15462

 Excited State  38:      Singlet-A'    13.1005 eV   94.64 nm  f=0.0153  <S**2>=0.000
       9 -> 17         0.18893
      10 -> 20         0.11957
      11 -> 23         0.59518
      12 -> 25        -0.22477
      12 -> 26        -0.12368

 Excited State  39:      Singlet-A"    13.1035 eV   94.62 nm  f=0.0171  <S**2>=0.000
       9 -> 16         0.70118

 Excited State  40:      Singlet-A'    13.2399 eV   93.64 nm  f=0.0641  <S**2>=0.000
      10 -> 20         0.50649
      12 -> 25         0.46898

 Excited State  41:      Singlet-A'    13.3488 eV   92.88 nm  f=0.0316  <S**2>=0.000
       7 -> 14         0.15534
       9 -> 17         0.27401
      10 -> 20         0.37961
      11 -> 23        -0.21554
      12 -> 25        -0.35797
      12 -> 26         0.22298

 Excited State  42:      Singlet-A'    13.4100 eV   92.46 nm  f=0.0058  <S**2>=0.000
       7 -> 15        -0.26913
       9 -> 17         0.52908
      10 -> 18         0.11685
      10 -> 20        -0.25064
      12 -> 25         0.16551

 Excited State  43:      Singlet-A"    13.4347 eV   92.29 nm  f=0.0012  <S**2>=0.000
      10 -> 21         0.44089
      11 -> 24         0.55130

 Excited State  44:      Singlet-A"    13.4824 eV   91.96 nm  f=0.0260  <S**2>=0.000
      10 -> 21         0.55057
      11 -> 24        -0.43636

 Excited State  45:      Singlet-A'    13.7250 eV   90.33 nm  f=0.1033  <S**2>=0.000
       7 -> 15        -0.12895
       8 -> 16         0.66089
      12 -> 26        -0.18209

 Excited State  46:      Singlet-A"    13.7727 eV   90.02 nm  f=0.0000  <S**2>=0.000
       8 -> 17         0.64838
       9 -> 18         0.27949

 Excited State  47:      Singlet-A"    13.8553 eV   89.49 nm  f=0.0213  <S**2>=0.000
       8 -> 17        -0.26994
       9 -> 18         0.60554
      12 -> 27        -0.18971

 Excited State  48:      Singlet-A'    13.9141 eV   89.11 nm  f=0.0589  <S**2>=0.000
       7 -> 15         0.60204
       8 -> 16         0.14400
       8 -> 18         0.15383
       9 -> 17         0.21189

 Excited State  49:      Singlet-A"    13.9759 eV   88.71 nm  f=0.0100  <S**2>=0.000
       9 -> 18         0.16028
      12 -> 27         0.67846

 Excited State  50:      Singlet-A'    14.1573 eV   87.58 nm  f=0.0235  <S**2>=0.000
       8 -> 18        -0.11011
      10 -> 22         0.67394
      12 -> 26         0.12508

 Excited State  51:      Singlet-A"    14.2836 eV   86.80 nm  f=0.0091  <S**2>=0.000
       9 -> 19         0.68779
      11 -> 25         0.12247

 Excited State  52:      Singlet-A'    14.3380 eV   86.47 nm  f=0.0670  <S**2>=0.000
       8 -> 16         0.11383
       8 -> 18        -0.39019
       9 -> 21        -0.13576
      10 -> 22        -0.16479
      12 -> 26         0.44578
      12 -> 28        -0.14945

 Excited State  53:      Singlet-A"    14.4315 eV   85.91 nm  f=0.0154  <S**2>=0.000
       9 -> 19        -0.10591
       9 -> 20         0.11484
      11 -> 25         0.68372

 Excited State  54:      Singlet-A'    14.6177 eV   84.82 nm  f=0.0613  <S**2>=0.000
       7 -> 16        -0.15083
       8 -> 18         0.48795
       9 -> 21        -0.25898
      10 -> 24         0.13172
      12 -> 26         0.25826
      12 -> 28        -0.15410
      12 -> 31         0.11336

 Excited State  55:      Singlet-A"    14.6788 eV   84.47 nm  f=0.0059  <S**2>=0.000
       9 -> 20         0.23670
      10 -> 23         0.65803

 Excited State  56:      Singlet-A"    14.6977 eV   84.36 nm  f=0.0561  <S**2>=0.000
       6 -> 13        -0.13559
       9 -> 20         0.62601
      10 -> 23        -0.23376
      11 -> 25        -0.10186
      11 -> 26        -0.10061

 Excited State  57:      Singlet-A'    14.7981 eV   83.78 nm  f=0.0050  <S**2>=0.000
       9 -> 21        -0.38557
      12 -> 28         0.58219

 Excited State  58:      Singlet-A'    14.8408 eV   83.54 nm  f=0.0054  <S**2>=0.000
       7 -> 16         0.47124
       8 -> 19         0.51369

 Excited State  59:      Singlet-A'    14.9013 eV   83.20 nm  f=0.0217  <S**2>=0.000
       7 -> 16        -0.44812
       8 -> 19         0.46113
       8 -> 20         0.13097
       9 -> 21         0.19664

 Excited State  60:      Singlet-A"    14.9205 eV   83.10 nm  f=0.0154  <S**2>=0.000
       7 -> 17         0.70081

 Excited State  61:      Singlet-A'    15.0359 eV   82.46 nm  f=0.0133  <S**2>=0.000
       7 -> 16         0.16462
       7 -> 18         0.12711
       8 -> 18         0.13136
       8 -> 19        -0.12532
       8 -> 20         0.19360
       9 -> 21         0.43412
      10 -> 24         0.10794
      12 -> 26         0.18108
      12 -> 28         0.29658
      12 -> 31         0.15568

 Excited State  62:      Singlet-A"    15.1401 eV   81.89 nm  f=0.0389  <S**2>=0.000
       6 -> 13        -0.13839
       9 -> 22        -0.10166
      11 -> 26         0.67025

 Excited State  63:      Singlet-A'    15.2285 eV   81.42 nm  f=0.0216  <S**2>=0.000
      10 -> 24         0.49954
      11 -> 27        -0.47857

 Excited State  64:      Singlet-A'    15.2835 eV   81.12 nm  f=0.0034  <S**2>=0.000
       8 -> 20         0.63294
       9 -> 21        -0.13410
      11 -> 27         0.13750
      12 -> 31        -0.11246

 Excited State  65:      Singlet-A'    15.3411 eV   80.82 nm  f=0.0767  <S**2>=0.000
       8 -> 20        -0.15461
      10 -> 24         0.43709
      11 -> 27         0.49025

 Excited State  66:      Singlet-A"    15.4117 eV   80.45 nm  f=0.0043  <S**2>=0.000
       8 -> 21         0.69316
       9 -> 22        -0.12160

 Excited State  67:      Singlet-A"    15.4939 eV   80.02 nm  f=0.0043  <S**2>=0.000
       8 -> 21         0.11019
       9 -> 22         0.68646
      11 -> 26         0.10471

 Excited State  68:      Singlet-A'    15.5132 eV   79.92 nm  f=0.0075  <S**2>=0.000
       7 -> 18         0.49171
      12 -> 29         0.48917

 Excited State  69:      Singlet-A'    15.6356 eV   79.30 nm  f=0.0257  <S**2>=0.000
       7 -> 18        -0.42103
      12 -> 29         0.45982
      12 -> 30         0.25891

 Excited State  70:      Singlet-A'    15.7967 eV   78.49 nm  f=0.0212  <S**2>=0.000
       7 -> 18         0.15499
      12 -> 29        -0.15522
      12 -> 30         0.64501

 Excited State  71:      Singlet-A"    15.9276 eV   77.84 nm  f=0.0557  <S**2>=0.000
       6 -> 13         0.58386
       8 -> 23        -0.16519
       9 -> 24         0.10223
      12 -> 32        -0.26835

 Excited State  72:      Singlet-A'    16.0491 eV   77.25 nm  f=0.0042  <S**2>=0.000
       6 -> 14        -0.13661
       7 -> 19         0.60297
       8 -> 22        -0.30690
      10 -> 25        -0.10602

 Excited State  73:      Singlet-A'    16.0679 eV   77.16 nm  f=0.0204  <S**2>=0.000
       7 -> 19         0.27021
       8 -> 22         0.54056
       9 -> 23         0.27484
      12 -> 31        -0.19118

 Excited State  74:      Singlet-A"    16.1155 eV   76.93 nm  f=0.0180  <S**2>=0.000
      11 -> 28         0.66417
      12 -> 32         0.22725

 Excited State  75:      Singlet-A'    16.1437 eV   76.80 nm  f=0.0262  <S**2>=0.000
       6 -> 14        -0.11506
       8 -> 22        -0.22318
       9 -> 23         0.45149
      10 -> 25         0.45669
      12 -> 31        -0.10965

 Excited State  76:      Singlet-A"    16.2864 eV   76.13 nm  f=0.1182  <S**2>=0.000
       6 -> 13         0.15446
       8 -> 23        -0.22713
       9 -> 24         0.11881
      11 -> 28        -0.22129
      12 -> 32         0.58714

 Excited State  77:      Singlet-A'    16.2969 eV   76.08 nm  f=0.0654  <S**2>=0.000
       7 -> 19         0.11818
       7 -> 20        -0.36415
       8 -> 22         0.13742
       9 -> 23        -0.34645
      10 -> 25         0.42301

 Excited State  78:      Singlet-A'    16.4225 eV   75.50 nm  f=0.0752  <S**2>=0.000
       7 -> 20         0.58862
       9 -> 23        -0.20059
      10 -> 25         0.25361

 Excited State  79:      Singlet-A"    16.5226 eV   75.04 nm  f=0.0029  <S**2>=0.000
       8 -> 23         0.22417
       9 -> 24         0.65917

 Excited State  80:      Singlet-A"    16.5496 eV   74.92 nm  f=0.0013  <S**2>=0.000
       7 -> 21         0.70054

 Excited State  81:      Singlet-A'    16.5550 eV   74.89 nm  f=0.0213  <S**2>=0.000
       6 -> 14         0.16958
       8 -> 24         0.13377
       9 -> 23         0.15302
      10 -> 26         0.12721
      12 -> 26        -0.11387
      12 -> 31         0.54007
      12 -> 33        -0.12581

 Excited State  82:      Singlet-A'    16.7176 eV   74.16 nm  f=0.1083  <S**2>=0.000
       6 -> 14         0.51279
       8 -> 24        -0.10353
      10 -> 26        -0.41350

 Excited State  83:      Singlet-A"    16.8000 eV   73.80 nm  f=0.0538  <S**2>=0.000
       6 -> 13         0.17772
       8 -> 23         0.56693
       9 -> 24        -0.15663
      10 -> 27        -0.27180
      12 -> 32         0.13475

 Excited State  84:      Singlet-A"    16.8804 eV   73.45 nm  f=0.0000  <S**2>=0.000
      11 -> 29         0.69421
      11 -> 30         0.10447

 Excited State  85:      Singlet-A"    17.0251 eV   72.82 nm  f=0.1235  <S**2>=0.000
       6 -> 13         0.13472
       8 -> 23         0.19314
      10 -> 27         0.63247

 Excited State  86:      Singlet-A'    17.0381 eV   72.77 nm  f=0.0117  <S**2>=0.000
       6 -> 14         0.26463
       6 -> 15         0.13061
       8 -> 24        -0.31149
      10 -> 26         0.48857
      11 -> 32        -0.18088

 Excited State  87:      Singlet-A"    17.0666 eV   72.65 nm  f=0.0001  <S**2>=0.000
      11 -> 29        -0.11306
      11 -> 30         0.68973

 Excited State  88:      Singlet-A'    17.2072 eV   72.05 nm  f=0.0494  <S**2>=0.000
       6 -> 14         0.14139
       6 -> 15         0.13483
       8 -> 24         0.58557
      10 -> 26         0.11598
      11 -> 32        -0.15319
      12 -> 31        -0.10146
      12 -> 33         0.18868

 Excited State  89:      Singlet-A'    17.2580 eV   71.84 nm  f=0.0213  <S**2>=0.000
       7 -> 22         0.67356
      12 -> 33        -0.15304

 Excited State  90:      Singlet-A'    17.4092 eV   71.22 nm  f=0.0062  <S**2>=0.000
       6 -> 15        -0.19281
       7 -> 22         0.10183
      10 -> 28         0.11328
      11 -> 32         0.29894
      12 -> 33         0.56856

 Excited State  91:      Singlet-A"    17.4261 eV   71.15 nm  f=0.0006  <S**2>=0.000
       9 -> 25        -0.18620
      11 -> 31         0.67865

 Excited State  92:      Singlet-A"    17.5271 eV   70.74 nm  f=0.0147  <S**2>=0.000
       9 -> 25         0.67917
      11 -> 31         0.18162

 Excited State  93:      Singlet-A'    17.5538 eV   70.63 nm  f=0.0171  <S**2>=0.000
       6 -> 15         0.56135
       7 -> 24         0.10382
      11 -> 32         0.36234

 Excited State  94:      Singlet-A'    17.6776 eV   70.14 nm  f=0.0958  <S**2>=0.000
       6 -> 14         0.10278
       6 -> 15        -0.24304
       7 -> 24         0.14519
       8 -> 25        -0.10719
      10 -> 26         0.14008
      10 -> 28        -0.27335
      11 -> 32         0.42058
      12 -> 33        -0.24387

 Excited State  95:      Singlet-A"    17.7442 eV   69.87 nm  f=0.0670  <S**2>=0.000
       7 -> 23         0.69292

 Excited State  96:      Singlet-A'    17.9432 eV   69.10 nm  f=0.0689  <S**2>=0.000
       7 -> 24         0.13357
      10 -> 28         0.60393
      10 -> 30         0.10017
      12 -> 31        -0.10656
      12 -> 33        -0.14698

 Excited State  97:      Singlet-A'    18.1197 eV   68.43 nm  f=0.0013  <S**2>=0.000
       8 -> 25         0.68359

 Excited State  98:      Singlet-A"    18.2717 eV   67.86 nm  f=0.0266  <S**2>=0.000
       9 -> 26         0.65668
      11 -> 33         0.16787

 Excited State  99:      Singlet-A"    18.3358 eV   67.62 nm  f=0.0052  <S**2>=0.000
      12 -> 34         0.69931

 Excited State 100:      Singlet-A'    18.3677 eV   67.50 nm  f=0.0058  <S**2>=0.000
       6 -> 16        -0.17339
       9 -> 27         0.65761
      10 -> 29        -0.12915

 Excited State 101:      Singlet-A'    18.4403 eV   67.24 nm  f=0.1199  <S**2>=0.000
       6 -> 16        -0.37637
       7 -> 24         0.53719
      10 -> 30        -0.13801

 Excited State 102:      Singlet-A'    18.5777 eV   66.74 nm  f=0.0183  <S**2>=0.000
       6 -> 16         0.51923
       6 -> 18         0.14987
       7 -> 24         0.28224
      10 -> 29        -0.19131
      10 -> 30        -0.23055

 Excited State 103:      Singlet-A"    18.6414 eV   66.51 nm  f=0.0018  <S**2>=0.000
       6 -> 17         0.69328
      11 -> 33         0.10256

 Excited State 104:      Singlet-A'    18.6566 eV   66.46 nm  f=0.0074  <S**2>=0.000
       6 -> 16         0.16203
       8 -> 26         0.14927
       9 -> 27         0.11863
      10 -> 29         0.61984
      10 -> 30         0.10813

 Excited State 105:      Singlet-A"    18.7350 eV   66.18 nm  f=0.0142  <S**2>=0.000
       9 -> 26        -0.15465
       9 -> 28         0.10096
      11 -> 33         0.66887

 Excited State 106:      Singlet-A'    18.8965 eV   65.61 nm  f=0.0475  <S**2>=0.000
       7 -> 24        -0.10022
       8 -> 26         0.58413
      10 -> 30        -0.26032
      12 -> 35         0.18245

 Excited State 107:      Singlet-A"    18.9315 eV   65.49 nm  f=0.0154  <S**2>=0.000
       8 -> 27         0.70214

 Excited State 108:      Singlet-A'    18.9992 eV   65.26 nm  f=0.0178  <S**2>=0.000
       7 -> 25         0.10293
       8 -> 26         0.30668
      10 -> 29        -0.17189
      10 -> 30         0.47203
      12 -> 35        -0.28304
      12 -> 36         0.11748

 Excited State 109:      Singlet-A'    19.1367 eV   64.79 nm  f=0.0393  <S**2>=0.000
       6 -> 18         0.10074
      10 -> 31         0.66584
      12 -> 35        -0.15455

 Excited State 110:      Singlet-A"    19.1779 eV   64.65 nm  f=0.0039  <S**2>=0.000
      10 -> 32         0.70002

 Excited State 111:      Singlet-A'    19.1822 eV   64.63 nm  f=0.0384  <S**2>=0.000
       6 -> 18         0.22791
       7 -> 25         0.25721
      10 -> 30         0.19167
      10 -> 31         0.11194
      12 -> 35         0.54782
      12 -> 36         0.10233

 Excited State 112:      Singlet-A"    19.2449 eV   64.42 nm  f=0.0082  <S**2>=0.000
       9 -> 28         0.68491

 Excited State 113:      Singlet-A'    19.3934 eV   63.93 nm  f=0.1068  <S**2>=0.000
       6 -> 18         0.53343
       7 -> 25         0.15070
       7 -> 26         0.25762
      10 -> 31        -0.14250
      12 -> 35        -0.17840

 Excited State 114:      Singlet-A'    19.5430 eV   63.44 nm  f=0.1779  <S**2>=0.000
       6 -> 18        -0.19763
       7 -> 25         0.53844
       8 -> 28        -0.21477
      10 -> 30        -0.16986
      12 -> 35        -0.11096
      12 -> 36         0.18959

 Excited State 115:      Singlet-A'    19.6395 eV   63.13 nm  f=0.0035  <S**2>=0.000
       6 -> 19         0.36192
       8 -> 28         0.16426
      11 -> 34         0.53928
      12 -> 36         0.20658

 Excited State 116:      Singlet-A'    19.7698 eV   62.71 nm  f=0.0096  <S**2>=0.000
       6 -> 19         0.54467
       8 -> 28        -0.32765
      11 -> 34        -0.24598

 Excited State 117:      Singlet-A'    19.8007 eV   62.62 nm  f=0.0688  <S**2>=0.000
       6 -> 19         0.23430
       6 -> 20        -0.11174
       7 -> 25         0.18854
       8 -> 28         0.48855
      11 -> 34        -0.16506
      12 -> 36        -0.29307

 Excited State 118:      Singlet-A"    19.9445 eV   62.16 nm  f=0.0053  <S**2>=0.000
       9 -> 29         0.68088

 The electronic state is 1-A'.
 Alpha  occ. eigenvalues --  -18.85975 -18.80371 -10.06801  -1.02580  -0.94062
 Alpha  occ. eigenvalues --   -0.61332  -0.47746  -0.43552  -0.41453  -0.36444
 Alpha  occ. eigenvalues --   -0.30216  -0.25523
 Alpha virt. eigenvalues --   -0.05303  -0.01203   0.02067   0.06506   0.07088
 Alpha virt. eigenvalues --    0.09024   0.11027   0.12314   0.13088   0.15357
 Alpha virt. eigenvalues --    0.17377   0.19209   0.22862   0.24997   0.26026

 Mulliken charges:
               1
     1  O   -0.098199
     2  C    0.638294
     3  O   -0.208479
     4  H    0.119801
     5  H   -0.451416
 Sum of Mulliken charges =   0.00000

 Dipole moment (field-independent basis, Debye):
    X=             -1.4907    Y=             -0.3390    Z=             -0.0000  Tot=              1.5287
 Quadrupole moment (field-independent basis, Debye-Ang):
   XX=            -22.5081   YY=            -13.4377   ZZ=            -17.3245
   XY=              0.0568   XZ=              0.0000   YZ=             -0.0000

 Normal termination of Gaussian 16 at Mon Mar 21 20:10:20 2022.
