 Gaussian 16, Revision C.01,
 Gaussian 16:  EM64L-G16RevC.01  3-Jul-2019

 --------------------------------------------------------------------
 #P TD(Nstates=10000) blyp/Gen SCF(maxcycles=100) Int(Grid=ultrafine)
 --------------------------------------------------------------------

 ---------------------
 xGDB7_00001_tier4.com
 ---------------------
 Symbolic Z-matrix:
 Charge =  0 Multiplicity = 1

                         Standard orientation:
 ---------------------------------------------------------------------
 Center     Atomic      Atomic             Coordinates (Angstroms)
 Number     Number       Type             X           Y           Z
 ---------------------------------------------------------------------
      1          6           0        0.000000    0.865978    0.000000
      2          6           0        0.749967   -0.432983    0.000000
      3          6           0       -0.749954   -0.432999    0.000000
      4          1           0       -0.000033    1.451806   -0.909176
      5          1           0       -0.000033    1.451806    0.909176
      6          1           0        1.257295   -0.725894    0.909177
      7          1           0        1.257295   -0.725894   -0.909177
      8          1           0       -1.257302   -0.725899    0.909179
      9          1           0       -1.257302   -0.725899   -0.909179
 ---------------------------------------------------------------------

 SCF Done:  E(RB-LYP) =  -117.737804209     A.U. after   11 cycles

 Excitation energies and oscillator strengths:

 Excited State   1:      Singlet-A'     7.3784 eV  168.04 nm  f=0.0022  <S**2>=0.000
      12 -> 13         0.70529
 This state for optimization and/or second-order correction.
 Total Energy, E(TD-HF/TD-DFT) =  -117.466652857
 Copying the excited state density for this state as the 1-particle RhoCI density.

 Excited State   2:      Singlet-A'     7.3786 eV  168.03 nm  f=0.0022  <S**2>=0.000
      11 -> 13         0.70529

 Excited State   3:      Singlet-A'     7.9784 eV  155.40 nm  f=0.0000  <S**2>=0.000
      11 -> 14         0.47859
      11 -> 15        -0.14257
      12 -> 14         0.14298
      12 -> 15         0.47943

 Excited State   4:      Singlet-A'     7.9866 eV  155.24 nm  f=0.0000  <S**2>=0.000
      11 -> 14        -0.14261
      11 -> 15        -0.47809
      12 -> 14         0.47963
      12 -> 15        -0.14285

 Excited State   5:      Singlet-A'     8.0508 eV  154.00 nm  f=0.0776  <S**2>=0.000
      11 -> 15         0.48995
      12 -> 14         0.48838

 Excited State   6:      Singlet-A'     8.0508 eV  154.00 nm  f=0.0776  <S**2>=0.000
      11 -> 14         0.48960
      12 -> 15        -0.48874

 Excited State   7:      Singlet-A"     8.2198 eV  150.84 nm  f=0.0000  <S**2>=0.000
      12 -> 16         0.70622

 Excited State   8:      Singlet-A"     8.2200 eV  150.83 nm  f=0.0000  <S**2>=0.000
      11 -> 16         0.70622

 Excited State   9:      Singlet-A"     9.0066 eV  137.66 nm  f=0.0000  <S**2>=0.000
      10 -> 13         0.70443

 Excited State  10:      Singlet-A"     9.0067 eV  137.66 nm  f=0.0000  <S**2>=0.000
       9 -> 13         0.70443

 Excited State  11:      Singlet-A'     9.4795 eV  130.79 nm  f=0.0013  <S**2>=0.000
      12 -> 17         0.70369

 Excited State  12:      Singlet-A'     9.4797 eV  130.79 nm  f=0.0013  <S**2>=0.000
      11 -> 17         0.70369

 Excited State  13:      Singlet-A"     9.5818 eV  129.39 nm  f=0.0000  <S**2>=0.000
       9 -> 15         0.49306
      10 -> 14         0.49481

 Excited State  14:      Singlet-A"     9.6192 eV  128.89 nm  f=0.0000  <S**2>=0.000
       9 -> 14         0.48774
       9 -> 15        -0.10393
      10 -> 14         0.10367
      10 -> 15         0.48806

 Excited State  15:      Singlet-A"     9.6192 eV  128.89 nm  f=0.0000  <S**2>=0.000
       9 -> 14         0.10395
       9 -> 15         0.48875
      10 -> 14        -0.48705
      10 -> 15         0.10365

 Excited State  16:      Singlet-A"     9.7199 eV  127.56 nm  f=0.1376  <S**2>=0.000
       9 -> 14         0.49313
      10 -> 15        -0.49287

 Excited State  17:      Singlet-A'    10.0100 eV  123.86 nm  f=0.1190  <S**2>=0.000
      10 -> 16         0.69783

 Excited State  18:      Singlet-A'    10.0101 eV  123.86 nm  f=0.1190  <S**2>=0.000
       9 -> 16         0.69783

 Excited State  19:      Singlet-A"    10.3266 eV  120.06 nm  f=0.0000  <S**2>=0.000
      11 -> 19        -0.49730
      12 -> 20         0.49944

 Excited State  20:      Singlet-A"    10.3407 eV  119.90 nm  f=0.0197  <S**2>=0.000
      11 -> 20         0.49447
      12 -> 19         0.50209

 Excited State  21:      Singlet-A"    10.3548 eV  119.74 nm  f=0.0000  <S**2>=0.000
      11 -> 19        -0.23644
      11 -> 20         0.44352
      12 -> 19        -0.43676
      12 -> 20        -0.23520

 Excited State  22:      Singlet-A"    10.3548 eV  119.74 nm  f=0.0000  <S**2>=0.000
      11 -> 19         0.44104
      11 -> 20         0.23757
      12 -> 19        -0.23405
      12 -> 20         0.43927

 Excited State  23:      Singlet-A'    10.4857 eV  118.24 nm  f=0.1711  <S**2>=0.000
      12 -> 18         0.66542

 Excited State  24:      Singlet-A'    10.4858 eV  118.24 nm  f=0.1711  <S**2>=0.000
      11 -> 18         0.66542

 Excited State  25:      Singlet-A'    11.0188 eV  112.52 nm  f=0.0000  <S**2>=0.000
      11 -> 21         0.15301
      11 -> 22        -0.47210
      12 -> 21         0.47912
      12 -> 22         0.15394

 Excited State  26:      Singlet-A'    11.0341 eV  112.36 nm  f=0.0141  <S**2>=0.000
      11 -> 21         0.49053
      12 -> 22        -0.49003

 Excited State  27:      Singlet-A'    11.0341 eV  112.36 nm  f=0.0141  <S**2>=0.000
      11 -> 22         0.49350
      12 -> 21         0.48703

 Excited State  28:      Singlet-A"    11.1443 eV  111.25 nm  f=0.0000  <S**2>=0.000
      10 -> 17         0.70016

 Excited State  29:      Singlet-A"    11.1444 eV  111.25 nm  f=0.0000  <S**2>=0.000
       9 -> 17         0.70015

 Excited State  30:      Singlet-A'    11.3606 eV  109.14 nm  f=0.0000  <S**2>=0.000
       8 -> 13        -0.15600
       9 -> 19         0.16627
      10 -> 20         0.16628
      11 -> 21         0.42968
      11 -> 22         0.13868
      12 -> 21        -0.13858
      12 -> 22         0.42954

 Excited State  31:      Singlet-A"    11.4427 eV  108.35 nm  f=0.0000  <S**2>=0.000
      10 -> 18         0.70408

 Excited State  32:      Singlet-A"    11.4428 eV  108.35 nm  f=0.0000  <S**2>=0.000
       9 -> 18         0.70408

 Excited State  33:      Singlet-A'    11.6466 eV  106.45 nm  f=0.0000  <S**2>=0.000
      11 -> 23         0.48132
      11 -> 24        -0.13067
      12 -> 23         0.13101
      12 -> 24         0.48200

 Excited State  34:      Singlet-A'    11.6527 eV  106.40 nm  f=0.0000  <S**2>=0.000
       8 -> 13         0.18054
      11 -> 23        -0.12464
      11 -> 24        -0.45863
      12 -> 23         0.45985
      12 -> 24        -0.12485

 Excited State  35:      Singlet-A'    11.7312 eV  105.69 nm  f=0.0268  <S**2>=0.000
      11 -> 23         0.48766
      12 -> 24        -0.48693

 Excited State  36:      Singlet-A'    11.7312 eV  105.69 nm  f=0.0268  <S**2>=0.000
      11 -> 24         0.48785
      12 -> 23         0.48674

 Excited State  37:      Singlet-A'    11.8022 eV  105.05 nm  f=0.0000  <S**2>=0.000
       8 -> 13         0.61573
       9 -> 19         0.19046
      10 -> 20         0.19056
      11 -> 24         0.14493
      12 -> 23        -0.14455

 Excited State  38:      Singlet-A"    11.8724 eV  104.43 nm  f=0.0000  <S**2>=0.000
      12 -> 25         0.69389

 Excited State  39:      Singlet-A"    11.8725 eV  104.43 nm  f=0.0000  <S**2>=0.000
      11 -> 25         0.69389

 Excited State  40:      Singlet-A'    11.9797 eV  103.49 nm  f=0.0000  <S**2>=0.000
       9 -> 20        -0.49833
      10 -> 19         0.49888

 Excited State  41:      Singlet-A"    12.0933 eV  102.52 nm  f=0.0000  <S**2>=0.000
      11 -> 26        -0.21410
      11 -> 27         0.44283
      12 -> 26         0.44552
      12 -> 27         0.21401

 Excited State  42:      Singlet-A"    12.0933 eV  102.52 nm  f=0.0000  <S**2>=0.000
      11 -> 26        -0.44388
      11 -> 27        -0.21328
      12 -> 26        -0.21482
      12 -> 27         0.44448

 Excited State  43:      Singlet-A'    12.0964 eV  102.50 nm  f=0.0101  <S**2>=0.000
       8 -> 14         0.11870
       9 -> 19         0.44024
       9 -> 20         0.18358
      10 -> 19         0.18335
      10 -> 20        -0.44021

 Excited State  44:      Singlet-A'    12.0964 eV  102.50 nm  f=0.0101  <S**2>=0.000
       8 -> 15         0.11869
       9 -> 19        -0.18344
       9 -> 20         0.44048
      10 -> 19         0.43998
      10 -> 20         0.18348

 Excited State  45:      Singlet-A"    12.1239 eV  102.26 nm  f=0.0000  <S**2>=0.000
      11 -> 27         0.49633
      12 -> 26        -0.49325

 Excited State  46:      Singlet-A"    12.2200 eV  101.46 nm  f=0.0174  <S**2>=0.000
       7 -> 13        -0.15243
       8 -> 16        -0.17038
      11 -> 26         0.46131
      12 -> 27         0.46086

 Excited State  47:      Singlet-A'    12.3779 eV  100.17 nm  f=0.0703  <S**2>=0.000
       8 -> 14         0.65498
      12 -> 28        -0.20792

 Excited State  48:      Singlet-A'    12.3780 eV  100.17 nm  f=0.0704  <S**2>=0.000
       8 -> 15         0.65500
      11 -> 28         0.20786

 Excited State  49:      Singlet-A"    12.4145 eV   99.87 nm  f=0.0498  <S**2>=0.000
       7 -> 13         0.64927
       8 -> 16        -0.24562

 Excited State  50:      Singlet-A'    12.5402 eV   98.87 nm  f=0.0000  <S**2>=0.000
       7 -> 16         0.34501
       8 -> 13        -0.21617
       9 -> 19         0.37274
      10 -> 20         0.37273
      11 -> 21        -0.13005
      12 -> 22        -0.13004

 Excited State  51:      Singlet-A"    12.5958 eV   98.43 nm  f=0.0042  <S**2>=0.000
       8 -> 16        -0.34421
       9 -> 21        -0.18689
       9 -> 22         0.38826
      10 -> 21         0.38963
      10 -> 22         0.18700

 Excited State  52:      Singlet-A"    12.5979 eV   98.42 nm  f=0.0000  <S**2>=0.000
       9 -> 21        -0.45014
       9 -> 22        -0.21607
      10 -> 21        -0.21682
      10 -> 22         0.45053

 Excited State  53:      Singlet-A"    12.6388 eV   98.10 nm  f=0.0000  <S**2>=0.000
       9 -> 21         0.49733
      10 -> 22         0.49693

 Excited State  54:      Singlet-A"    12.6388 eV   98.10 nm  f=0.0000  <S**2>=0.000
       9 -> 22         0.49773
      10 -> 21        -0.49652

 Excited State  55:      Singlet-A'    12.6901 eV   97.70 nm  f=0.2458  <S**2>=0.000
       8 -> 14         0.20883
       9 -> 25        -0.11699
      12 -> 28         0.63481

 Excited State  56:      Singlet-A'    12.6902 eV   97.70 nm  f=0.2458  <S**2>=0.000
       8 -> 15        -0.20875
      10 -> 25        -0.11700
      11 -> 28         0.63484

 Excited State  57:      Singlet-A"    12.7028 eV   97.60 nm  f=0.1497  <S**2>=0.000
       7 -> 13         0.18160
       8 -> 16         0.51140
       9 -> 21        -0.10478
       9 -> 22         0.21818
       9 -> 23         0.17198
      10 -> 21         0.21776
      10 -> 22         0.10476
      10 -> 24        -0.17196
      11 -> 26         0.10957
      12 -> 27         0.10943

 Excited State  58:      Singlet-A"    13.0161 eV   95.25 nm  f=0.0000  <S**2>=0.000
       7 -> 14         0.70542

 Excited State  59:      Singlet-A"    13.0161 eV   95.25 nm  f=0.0000  <S**2>=0.000
       7 -> 15         0.70543

 Excited State  60:      Singlet-A"    13.2937 eV   93.27 nm  f=0.0000  <S**2>=0.000
       9 -> 24         0.49530
      10 -> 23         0.49621

 Excited State  61:      Singlet-A"    13.3648 eV   92.77 nm  f=0.0000  <S**2>=0.000
       9 -> 23        -0.31167
       9 -> 24         0.37833
      10 -> 23        -0.37767
      10 -> 24        -0.31179

 Excited State  62:      Singlet-A"    13.3648 eV   92.77 nm  f=0.0000  <S**2>=0.000
       9 -> 23         0.37804
       9 -> 24         0.31203
      10 -> 23        -0.31142
      10 -> 24         0.37797

 Excited State  63:      Singlet-A'    13.6457 eV   90.86 nm  f=0.0000  <S**2>=0.000
       7 -> 16         0.43968
       8 -> 17        -0.30269
       9 -> 19        -0.10395
       9 -> 27        -0.27917
      10 -> 20        -0.10393
      10 -> 26        -0.28048

 Excited State  64:      Singlet-A'    13.6569 eV   90.79 nm  f=0.0055  <S**2>=0.000
       9 -> 26         0.25710
      10 -> 25         0.58516
      10 -> 27         0.25745

 Excited State  65:      Singlet-A'    13.6570 eV   90.78 nm  f=0.0055  <S**2>=0.000
       9 -> 25         0.58511
       9 -> 27        -0.25791
      10 -> 26         0.25676

 Excited State  66:      Singlet-A'    13.7216 eV   90.36 nm  f=0.0000  <S**2>=0.000
       8 -> 18         0.16260
       9 -> 26         0.48620
      10 -> 27        -0.48602

 Excited State  67:      Singlet-A"    13.7896 eV   89.91 nm  f=0.5808  <S**2>=0.000
       7 -> 13        -0.10946
       7 -> 17        -0.29994
       8 -> 16        -0.13588
       9 -> 23         0.41190
      10 -> 24        -0.41186

 Excited State  68:      Singlet-A'    13.7980 eV   89.86 nm  f=0.0000  <S**2>=0.000
       7 -> 16        -0.15745
       8 -> 17         0.40896
       9 -> 27        -0.38416
      10 -> 26        -0.38409

 Excited State  69:      Singlet-A'    14.0284 eV   88.38 nm  f=0.4328  <S**2>=0.000
       9 -> 25         0.29285
       9 -> 27         0.39385
      10 -> 26        -0.39379
      11 -> 29        -0.13038
      12 -> 28         0.12989
      12 -> 30         0.13041

 Excited State  70:      Singlet-A'    14.0284 eV   88.38 nm  f=0.4328  <S**2>=0.000
       9 -> 26         0.39386
      10 -> 25        -0.29276
      10 -> 27         0.39383
      11 -> 28        -0.12990
      11 -> 30         0.13036
      12 -> 29         0.13043

 Excited State  71:      Singlet-A'    14.0978 eV   87.95 nm  f=0.0000  <S**2>=0.000
       5 -> 14        -0.14504
       6 -> 15         0.14505
       7 -> 16         0.34188
       8 -> 17         0.48067
       9 -> 19        -0.11011
       9 -> 27         0.14432
      10 -> 20        -0.11010
      10 -> 26         0.14421

 Excited State  72:      Singlet-A"    14.1689 eV   87.50 nm  f=0.0000  <S**2>=0.000
      10 -> 28         0.69126

 Excited State  73:      Singlet-A"    14.1690 eV   87.50 nm  f=0.0000  <S**2>=0.000
       9 -> 28         0.69126

 Excited State  74:      Singlet-A'    14.2436 eV   87.05 nm  f=0.0000  <S**2>=0.000
       8 -> 18         0.60726
      11 -> 30         0.23119
      12 -> 29        -0.23120

 Excited State  75:      Singlet-A'    14.4754 eV   85.65 nm  f=0.0000  <S**2>=0.000
       8 -> 18         0.31301
      11 -> 30        -0.43825
      12 -> 29         0.43840

 Excited State  76:      Singlet-A'    14.4894 eV   85.57 nm  f=0.0000  <S**2>=0.000
      11 -> 29         0.48206
      12 -> 30         0.48224

 Excited State  77:      Singlet-A'    14.6852 eV   84.43 nm  f=0.2806  <S**2>=0.000
       6 -> 13         0.42003
      10 -> 25         0.12577
      11 -> 29        -0.21166
      11 -> 30         0.29818
      12 -> 29         0.29807
      12 -> 30         0.21157
      12 -> 32        -0.11046

 Excited State  78:      Singlet-A'    14.6853 eV   84.43 nm  f=0.2807  <S**2>=0.000
       5 -> 13         0.41982
       9 -> 25         0.12583
      11 -> 29         0.29827
      11 -> 30         0.21170
      11 -> 32         0.11054
      12 -> 29         0.21161
      12 -> 30        -0.29813

 Excited State  79:      Singlet-A"    14.7210 eV   84.22 nm  f=0.0000  <S**2>=0.000
       8 -> 19         0.70585

 Excited State  80:      Singlet-A"    14.7210 eV   84.22 nm  f=0.0000  <S**2>=0.000
       8 -> 20         0.70585

 Excited State  81:      Singlet-A'    14.7847 eV   83.86 nm  f=0.0547  <S**2>=0.000
       6 -> 13         0.53113
      10 -> 25        -0.10955
      11 -> 29         0.12387
      11 -> 30        -0.16920
      11 -> 31         0.15651
      12 -> 29        -0.16913
      12 -> 30        -0.12382
      12 -> 32         0.24442

 Excited State  82:      Singlet-A'    14.7848 eV   83.86 nm  f=0.0546  <S**2>=0.000
       5 -> 13         0.53129
       9 -> 25        -0.10951
      11 -> 29        -0.16908
      11 -> 30        -0.12382
      11 -> 32        -0.24432
      12 -> 29        -0.12376
      12 -> 30         0.16899
      12 -> 31         0.15655

 Excited State  83:      Singlet-A"    14.7901 eV   83.83 nm  f=0.0000  <S**2>=0.000
       7 -> 18         0.70619

 Excited State  84:      Singlet-A"    14.8499 eV   83.49 nm  f=0.5557  <S**2>=0.000
       7 -> 17         0.62675
       8 -> 25         0.11417
       9 -> 23         0.15946
      10 -> 24        -0.15945

 Excited State  85:      Singlet-A'    15.0710 eV   82.27 nm  f=0.0228  <S**2>=0.000
      11 -> 32         0.12811
      12 -> 31         0.67350

 Excited State  86:      Singlet-A'    15.0711 eV   82.27 nm  f=0.0228  <S**2>=0.000
      11 -> 31         0.67351
      12 -> 32        -0.12819

 Excited State  87:      Singlet-A'    15.2636 eV   81.23 nm  f=0.0077  <S**2>=0.000
       5 -> 15         0.31081
       6 -> 14        -0.31150
       7 -> 20        -0.15702
       8 -> 21         0.19637
      12 -> 32         0.46471

 Excited State  88:      Singlet-A'    15.2637 eV   81.23 nm  f=0.0077  <S**2>=0.000
       5 -> 14        -0.31129
       6 -> 15        -0.31137
       7 -> 19         0.15690
       8 -> 22        -0.19616
      11 -> 32         0.46463

 Excited State  89:      Singlet-A'    15.3178 eV   80.94 nm  f=0.0000  <S**2>=0.000
       5 -> 14         0.12421
       5 -> 15         0.47216
       6 -> 14         0.48763
       6 -> 15        -0.12538

 Excited State  90:      Singlet-A'    15.3194 eV   80.93 nm  f=0.0028  <S**2>=0.000
       5 -> 14        -0.24530
       5 -> 15         0.22572
       6 -> 14        -0.21172
       6 -> 15        -0.24895
       7 -> 19        -0.26746
       7 -> 20         0.28984
       8 -> 21        -0.26757
       8 -> 22         0.10063
      11 -> 32        -0.10774
      12 -> 32        -0.13528

 Excited State  91:      Singlet-A'    15.3194 eV   80.93 nm  f=0.0028  <S**2>=0.000
       5 -> 14         0.22101
       5 -> 15         0.25639
       6 -> 14        -0.23782
       6 -> 15         0.21618
       7 -> 19         0.29013
       7 -> 20         0.26727
       8 -> 21        -0.10057
       8 -> 22        -0.26752
      11 -> 32         0.13552
      12 -> 32        -0.10757

 Excited State  92:      Singlet-A'    15.4120 eV   80.45 nm  f=0.1115  <S**2>=0.000
       7 -> 19        -0.29817
       7 -> 20         0.36510
       8 -> 21         0.48890
       8 -> 22        -0.15116

 Excited State  93:      Singlet-A'    15.4120 eV   80.45 nm  f=0.1115  <S**2>=0.000
       7 -> 19         0.36495
       7 -> 20         0.29820
       8 -> 21         0.15109
       8 -> 22         0.48900

 Excited State  94:      Singlet-A"    15.4365 eV   80.32 nm  f=0.0000  <S**2>=0.000
      12 -> 33         0.70381

 Excited State  95:      Singlet-A"    15.4366 eV   80.32 nm  f=0.0000  <S**2>=0.000
      11 -> 33         0.70381

 Excited State  96:      Singlet-A"    15.5681 eV   79.64 nm  f=0.0000  <S**2>=0.000
       6 -> 16         0.68119
       9 -> 29        -0.10912
      10 -> 30        -0.10915

 Excited State  97:      Singlet-A"    15.5682 eV   79.64 nm  f=0.0000  <S**2>=0.000
       5 -> 16         0.68118
       9 -> 30         0.10913
      10 -> 29        -0.10916

 Excited State  98:      Singlet-A"    15.5919 eV   79.52 nm  f=0.0000  <S**2>=0.000
      12 -> 34         0.70364

 Excited State  99:      Singlet-A"    15.5921 eV   79.52 nm  f=0.0000  <S**2>=0.000
      11 -> 34         0.70365

 Excited State 100:      Singlet-A'    15.8649 eV   78.15 nm  f=0.0000  <S**2>=0.000
       5 -> 14         0.42668
       5 -> 15        -0.11095
       6 -> 14        -0.11095
       6 -> 15        -0.42666
       7 -> 16         0.13485
       8 -> 28        -0.12536

 Excited State 101:      Singlet-A'    15.9494 eV   77.74 nm  f=0.0014  <S**2>=0.000
       5 -> 14         0.10592
       6 -> 15         0.10592
       7 -> 19        -0.22491
       8 -> 21        -0.12656
       8 -> 22         0.16289
       8 -> 23         0.51442
      11 -> 32         0.23647

 Excited State 102:      Singlet-A'    15.9494 eV   77.74 nm  f=0.0014  <S**2>=0.000
       5 -> 15        -0.10595
       6 -> 14         0.10592
       7 -> 20         0.22496
       8 -> 21        -0.16291
       8 -> 22        -0.12658
       8 -> 24         0.51438
      12 -> 32         0.23645

 Excited State 103:      Singlet-A"    15.9794 eV   77.59 nm  f=0.0000  <S**2>=0.000
       9 -> 29        -0.48449
       9 -> 30        -0.12021
      10 -> 29        -0.12035
      10 -> 30         0.48477

 Excited State 104:      Singlet-A"    16.0175 eV   77.41 nm  f=0.0000  <S**2>=0.000
       7 -> 21         0.70248

 Excited State 105:      Singlet-A"    16.0176 eV   77.41 nm  f=0.0000  <S**2>=0.000
       7 -> 22         0.70247

 Excited State 106:      Singlet-A"    16.0987 eV   77.01 nm  f=0.0000  <S**2>=0.000
       5 -> 16         0.14907
       9 -> 29         0.31268
       9 -> 30        -0.35505
      10 -> 29         0.35540
      10 -> 30         0.31268

 Excited State 107:      Singlet-A"    16.0987 eV   77.01 nm  f=0.0000  <S**2>=0.000
       6 -> 16         0.14905
       9 -> 29         0.35540
       9 -> 30         0.31266
      10 -> 29        -0.31271
      10 -> 30         0.35507

 Excited State 108:      Singlet-A"    16.2070 eV   76.50 nm  f=0.0146  <S**2>=0.000
       8 -> 25         0.21240
       9 -> 29        -0.11306
       9 -> 30         0.45546
      10 -> 29         0.45513
      10 -> 30         0.11293

 Excited State 109:      Singlet-A'    16.2835 eV   76.14 nm  f=0.0589  <S**2>=0.000
       7 -> 20        -0.11659
       8 -> 21         0.18396
       8 -> 23         0.33890
       8 -> 24         0.30280
      11 -> 32        -0.12832
      11 -> 37         0.19786
      12 -> 32        -0.19736
      12 -> 38         0.19789

 Excited State 110:      Singlet-A'    16.2835 eV   76.14 nm  f=0.0589  <S**2>=0.000
       7 -> 19        -0.11659
       8 -> 22         0.18397
       8 -> 23        -0.30275
       8 -> 24         0.33893
      11 -> 32         0.19739
      11 -> 38         0.19785
      12 -> 32        -0.12828
      12 -> 37        -0.19791

 Excited State 111:      Singlet-A"    16.4019 eV   75.59 nm  f=0.0925  <S**2>=0.000
       8 -> 25         0.64339
       9 -> 30        -0.14678
      10 -> 29        -0.14668

 The electronic state is 1-A'.
 Alpha  occ. eigenvalues --   -9.92191  -9.92180  -9.92180  -0.76613  -0.52509
 Alpha  occ. eigenvalues --   -0.52509  -0.44013  -0.41616  -0.31606  -0.31605
 Alpha  occ. eigenvalues --   -0.25607  -0.25606
 Alpha virt. eigenvalues --    0.01328   0.03606   0.03606   0.04422   0.09172
 Alpha virt. eigenvalues --    0.10048   0.12427   0.12427   0.14831   0.14832
 Alpha virt. eigenvalues --    0.17265   0.17265   0.17839   0.18961   0.18961

 Mulliken charges:
               1
     1  C    0.765630
     2  C    0.765721
     3  C    0.765619
     4  H   -0.382821
     5  H   -0.382821
     6  H   -0.382837
     7  H   -0.382837
     8  H   -0.382827
     9  H   -0.382827
 Sum of Mulliken charges =  -0.00000

 Dipole moment (field-independent basis, Debye):
    X=             -0.0000    Y=             -0.0000    Z=              0.0000  Tot=              0.0000
 Quadrupole moment (field-independent basis, Debye-Ang):
   XX=            -21.0704   YY=            -21.0704   ZZ=            -18.9132
   XY=             -0.0001   XZ=              0.0000   YZ=              0.0000

 Normal termination of Gaussian 16 at Mon Mar 21 20:08:01 2022.
