 Gaussian 16, Revision C.01,
 Gaussian 16:  EM64L-G16RevC.01  3-Jul-2019

 --------------------------------------------------------------------
 #P TD(Nstates=10000) blyp/Gen SCF(maxcycles=100) Int(Grid=ultrafine)
 --------------------------------------------------------------------

 ---------------------
 xGDB7_00001_tier4.com
 ---------------------
 Symbolic Z-matrix:
 Charge =  0 Multiplicity = 1

                         Standard orientation:
 ---------------------------------------------------------------------
 Center     Atomic      Atomic             Coordinates (Angstroms)
 Number     Number       Type             X           Y           Z
 ---------------------------------------------------------------------
      1          6           0       -0.049078    0.702042   -0.000000
      2          7           0       -0.049078   -0.754243    0.000000
      3          1           0        0.946109    1.166603   -0.000000
      4          1           0       -0.587574    1.062597    0.877770
      5          1           0       -0.587574    1.062597   -0.877770
      6          1           0        0.433525   -1.112175    0.812504
      7          1           0        0.433525   -1.112175   -0.812504
 ---------------------------------------------------------------------

 SCF Done:  E(RB-LYP) =  -95.7431932616     A.U. after   12 cycles

 Excitation energies and oscillator strengths:

 Excited State   1:      Singlet-A'     5.3914 eV  229.97 nm  f=0.0040  <S**2>=0.000
       9 -> 10         0.70566
 This state for optimization and/or second-order correction.
 Total Energy, E(TD-HF/TD-DFT) =  -95.5450644329
 Copying the excited state density for this state as the 1-particle RhoCI density.

 Excited State   2:      Singlet-A'     6.3474 eV  195.33 nm  f=0.0350  <S**2>=0.000
       9 -> 11         0.70506

 Excited State   3:      Singlet-A"     7.1137 eV  174.29 nm  f=0.0062  <S**2>=0.000
       9 -> 12         0.70562

 Excited State   4:      Singlet-A'     7.6486 eV  162.10 nm  f=0.0755  <S**2>=0.000
       9 -> 13         0.70523

 Excited State   5:      Singlet-A"     8.0582 eV  153.86 nm  f=0.0008  <S**2>=0.000
       9 -> 14         0.70546

 Excited State   6:      Singlet-A'     8.6989 eV  142.53 nm  f=0.0036  <S**2>=0.000
       9 -> 15         0.70545

 Excited State   7:      Singlet-A'     8.8657 eV  139.85 nm  f=0.0139  <S**2>=0.000
       9 -> 16         0.70586

 Excited State   8:      Singlet-A"     8.8915 eV  139.44 nm  f=0.0055  <S**2>=0.000
       8 -> 10         0.70639

 Excited State   9:      Singlet-A"     9.2422 eV  134.15 nm  f=0.0006  <S**2>=0.000
       9 -> 17         0.70645

 Excited State  10:      Singlet-A'     9.8671 eV  125.65 nm  f=0.0428  <S**2>=0.000
       7 -> 10         0.70262

 Excited State  11:      Singlet-A"     9.8746 eV  125.56 nm  f=0.0704  <S**2>=0.000
       8 -> 11         0.70494

 Excited State  12:      Singlet-A'    10.3346 eV  119.97 nm  f=0.0025  <S**2>=0.000
       6 -> 10        -0.13224
       8 -> 12         0.10972
       9 -> 18         0.56951
       9 -> 19         0.36532

 Excited State  13:      Singlet-A'    10.5739 eV  117.25 nm  f=0.0132  <S**2>=0.000
       6 -> 10         0.11289
       7 -> 11         0.21328
       8 -> 12        -0.37365
       9 -> 18        -0.20585
       9 -> 19         0.49579

 Excited State  14:      Singlet-A"    10.6300 eV  116.64 nm  f=0.0119  <S**2>=0.000
       9 -> 20         0.70343

 Excited State  15:      Singlet-A'    10.7407 eV  115.43 nm  f=0.0092  <S**2>=0.000
       6 -> 10         0.25411
       7 -> 11        -0.11182
       8 -> 12         0.52465
       9 -> 18        -0.22501
       9 -> 19         0.28653

 Excited State  16:      Singlet-A'    10.8248 eV  114.54 nm  f=0.0871  <S**2>=0.000
       6 -> 10         0.19021
       7 -> 11         0.63004
       8 -> 12         0.15513
       9 -> 19        -0.13009

 Excited State  17:      Singlet-A'    10.9672 eV  113.05 nm  f=0.1246  <S**2>=0.000
       6 -> 10         0.59352
       7 -> 11        -0.19952
       8 -> 12        -0.18920
       9 -> 18         0.20311

 Excited State  18:      Singlet-A"    11.1269 eV  111.43 nm  f=0.0197  <S**2>=0.000
       8 -> 13         0.70056

 Excited State  19:      Singlet-A"    11.5219 eV  107.61 nm  f=0.0141  <S**2>=0.000
       7 -> 12         0.70146

 Excited State  20:      Singlet-A'    11.7284 eV  105.71 nm  f=0.0087  <S**2>=0.000
       6 -> 11        -0.44851
       7 -> 13        -0.12298
       8 -> 14         0.47008
       9 -> 21         0.22179

 Excited State  21:      Singlet-A'    11.8055 eV  105.02 nm  f=0.1278  <S**2>=0.000
       6 -> 11         0.52876
       7 -> 13        -0.19327
       8 -> 14         0.38397
       9 -> 21         0.12862

 Excited State  22:      Singlet-A'    11.9946 eV  103.37 nm  f=0.1776  <S**2>=0.000
       7 -> 13         0.19089
       8 -> 14        -0.18248
       9 -> 21         0.63290

 Excited State  23:      Singlet-A"    12.0274 eV  103.08 nm  f=0.0048  <S**2>=0.000
       5 -> 10        -0.28055
       9 -> 22         0.64270

 Excited State  24:      Singlet-A"    12.1700 eV  101.88 nm  f=0.0903  <S**2>=0.000
       5 -> 10         0.58628
       6 -> 12         0.11488
       8 -> 15        -0.23002
       8 -> 16        -0.14648
       9 -> 22         0.23727

 Excited State  25:      Singlet-A"    12.2467 eV  101.24 nm  f=0.0130  <S**2>=0.000
       5 -> 10         0.16802
       7 -> 14         0.25459
       8 -> 15         0.62591

 Excited State  26:      Singlet-A'    12.3403 eV  100.47 nm  f=0.0382  <S**2>=0.000
       6 -> 13        -0.14171
       7 -> 13         0.58991
       8 -> 14         0.21487
       8 -> 17        -0.17930
       9 -> 21        -0.10601

 Excited State  27:      Singlet-A"    12.3664 eV  100.26 nm  f=0.0052  <S**2>=0.000
       5 -> 10         0.10767
       6 -> 12         0.23552
       8 -> 16         0.64921

 Excited State  28:      Singlet-A'    12.5290 eV   98.96 nm  f=0.2068  <S**2>=0.000
       9 -> 23         0.65992
       9 -> 24        -0.17632

 Excited State  29:      Singlet-A"    12.5315 eV   98.94 nm  f=0.0005  <S**2>=0.000
       6 -> 12         0.51690
       7 -> 14        -0.40914
       8 -> 15         0.10760
       8 -> 16        -0.21010

 Excited State  30:      Singlet-A"    12.6714 eV   97.85 nm  f=0.2058  <S**2>=0.000
       5 -> 10        -0.13908
       6 -> 12         0.38648
       7 -> 14         0.48769
       8 -> 15        -0.17286
       8 -> 19        -0.13138
       9 -> 22        -0.11583

 Excited State  31:      Singlet-A'    12.8329 eV   96.61 nm  f=0.0001  <S**2>=0.000
       6 -> 13         0.11374
       8 -> 17        -0.30495
       9 -> 23         0.17535
       9 -> 24         0.59480

 Excited State  32:      Singlet-A'    12.9046 eV   96.08 nm  f=0.0064  <S**2>=0.000
       6 -> 13        -0.30508
       7 -> 15        -0.12860
       8 -> 17         0.51733
       9 -> 24         0.32095

 Excited State  33:      Singlet-A"    13.0658 eV   94.89 nm  f=0.0173  <S**2>=0.000
       5 -> 11         0.69467

 Excited State  34:      Singlet-A'    13.1200 eV   94.50 nm  f=0.0328  <S**2>=0.000
       6 -> 13        -0.43645
       7 -> 15         0.52538
       8 -> 17        -0.10686

 Excited State  35:      Singlet-A'    13.3610 eV   92.80 nm  f=0.0238  <S**2>=0.000
       5 -> 12        -0.30107
       6 -> 13         0.32678
       7 -> 13         0.12196
       7 -> 15         0.39740
       7 -> 16        -0.24243
       8 -> 17         0.19671

 Excited State  36:      Singlet-A"    13.4460 eV   92.21 nm  f=0.0148  <S**2>=0.000
       6 -> 14         0.67765
       8 -> 18         0.14220

 Excited State  37:      Singlet-A"    13.4805 eV   91.97 nm  f=0.0007  <S**2>=0.000
       6 -> 14        -0.14935
       8 -> 18         0.68796

 Excited State  38:      Singlet-A'    13.5707 eV   91.36 nm  f=0.1607  <S**2>=0.000
       5 -> 12        -0.15996
       6 -> 13         0.16747
       7 -> 16         0.60789
       8 -> 17         0.10263
       9 -> 25         0.10264

 Excited State  39:      Singlet-A"    13.7066 eV   90.46 nm  f=0.0011  <S**2>=0.000
       7 -> 17         0.64767
       8 -> 19         0.27708

 Excited State  40:      Singlet-A'    13.7310 eV   90.29 nm  f=0.0283  <S**2>=0.000
       7 -> 16        -0.11225
       9 -> 25         0.68670

 Excited State  41:      Singlet-A"    14.0662 eV   88.14 nm  f=0.0004  <S**2>=0.000
       8 -> 19        -0.16752
       9 -> 26         0.68126

 Excited State  42:      Singlet-A'    14.0943 eV   87.97 nm  f=0.0123  <S**2>=0.000
       5 -> 12         0.28843
       6 -> 15         0.58388
       8 -> 20        -0.22000

 Excited State  43:      Singlet-A"    14.1488 eV   87.63 nm  f=0.0834  <S**2>=0.000
       5 -> 13         0.43365
       7 -> 17        -0.17885
       8 -> 19         0.46666
       9 -> 26         0.15365

 Excited State  44:      Singlet-A'    14.2273 eV   87.15 nm  f=0.0050  <S**2>=0.000
       5 -> 12         0.14127
       6 -> 15        -0.28245
       6 -> 16         0.48060
       8 -> 20        -0.37733
       9 -> 29         0.10338

 Excited State  45:      Singlet-A"    14.3829 eV   86.20 nm  f=0.1909  <S**2>=0.000
       5 -> 13         0.53612
       6 -> 17        -0.15056
       7 -> 17         0.12056
       7 -> 20        -0.11132
       8 -> 19        -0.29871
       9 -> 27        -0.18642

 Excited State  46:      Singlet-A'    14.3990 eV   86.11 nm  f=0.0516  <S**2>=0.000
       5 -> 12        -0.22123
       5 -> 14         0.11682
       6 -> 16        -0.15787
       7 -> 18         0.50608
       8 -> 20        -0.28409
       9 -> 29        -0.12608
       9 -> 30        -0.12542

 Excited State  47:      Singlet-A'    14.5409 eV   85.27 nm  f=0.2514  <S**2>=0.000
       5 -> 12         0.19815
       5 -> 14        -0.18787
       6 -> 16         0.15778
       7 -> 18         0.44789
       7 -> 19        -0.11234
       8 -> 20         0.37046

 Excited State  48:      Singlet-A"    14.5689 eV   85.10 nm  f=0.0081  <S**2>=0.000
       6 -> 17        -0.17047
       9 -> 27         0.64052
       9 -> 28        -0.18110

 Excited State  49:      Singlet-A"    14.6914 eV   84.39 nm  f=0.0673  <S**2>=0.000
       5 -> 13         0.10246
       6 -> 17         0.63382
       7 -> 20        -0.13691
       8 -> 19        -0.10432
       9 -> 27         0.14857
       9 -> 28         0.14096

 Excited State  50:      Singlet-A'    14.7091 eV   84.29 nm  f=0.0060  <S**2>=0.000
       5 -> 12         0.21713
       5 -> 14         0.13910
       6 -> 15        -0.16845
       6 -> 16        -0.29733
       7 -> 18         0.14327
       7 -> 19         0.10732
       9 -> 29         0.48838

 Excited State  51:      Singlet-A"    14.8166 eV   83.68 nm  f=0.0002  <S**2>=0.000
       6 -> 17        -0.18756
       9 -> 27         0.12663
       9 -> 28         0.65375

 Excited State  52:      Singlet-A'    14.8481 eV   83.50 nm  f=0.1031  <S**2>=0.000
       5 -> 14         0.43226
       6 -> 16         0.15533
       7 -> 19         0.24494
       8 -> 20         0.10632
       9 -> 30         0.43263

 Excited State  53:      Singlet-A'    14.9265 eV   83.06 nm  f=0.0506  <S**2>=0.000
       4 -> 11         0.11490
       5 -> 12        -0.24930
       6 -> 15         0.16319
       6 -> 16         0.24643
       7 -> 19        -0.16764
       8 -> 20         0.15401
       9 -> 29         0.42293
       9 -> 30        -0.14131

 Excited State  54:      Singlet-A'    14.9935 eV   82.69 nm  f=0.0175  <S**2>=0.000
       5 -> 14        -0.33682
       6 -> 18         0.19447
       7 -> 19         0.52853
       9 -> 29         0.10127

 Excited State  55:      Singlet-A'    15.0899 eV   82.16 nm  f=0.2458  <S**2>=0.000
       5 -> 12        -0.12911
       5 -> 14        -0.27986
       7 -> 19        -0.25778
       8 -> 20        -0.13641
       8 -> 22         0.11957
       9 -> 30         0.49740

 Excited State  56:      Singlet-A"    15.1719 eV   81.72 nm  f=0.0142  <S**2>=0.000
       5 -> 15         0.25995
       7 -> 20         0.62192
       8 -> 21         0.11372

 Excited State  57:      Singlet-A"    15.3121 eV   80.97 nm  f=0.0027  <S**2>=0.000
       8 -> 21         0.68990

 Excited State  58:      Singlet-A"    15.5043 eV   79.97 nm  f=0.0217  <S**2>=0.000
       5 -> 15         0.51193
       5 -> 16         0.44231
       7 -> 20        -0.14066

 Excited State  59:      Singlet-A'    15.5325 eV   79.82 nm  f=0.0114  <S**2>=0.000
       4 -> 10        -0.12100
       5 -> 17        -0.11541
       6 -> 18         0.61131
       6 -> 19        -0.21177
       7 -> 19        -0.11307
       8 -> 22         0.11864

 Excited State  60:      Singlet-A'    15.5875 eV   79.54 nm  f=0.1364  <S**2>=0.000
       6 -> 18        -0.13977
       6 -> 19        -0.11944
       8 -> 22         0.65867

 Excited State  61:      Singlet-A"    15.6785 eV   79.08 nm  f=0.1683  <S**2>=0.000
       5 -> 15        -0.32929
       5 -> 16         0.50449
       6 -> 20         0.27254
       7 -> 20         0.13827

 Excited State  62:      Singlet-A"    15.8294 eV   78.33 nm  f=0.0112  <S**2>=0.000
       8 -> 23         0.67197
       9 -> 32         0.19732

 Excited State  63:      Singlet-A"    15.8402 eV   78.27 nm  f=0.0029  <S**2>=0.000
       8 -> 23        -0.19171
       9 -> 32         0.67402

 Excited State  64:      Singlet-A'    15.8718 eV   78.12 nm  f=0.0169  <S**2>=0.000
       6 -> 19        -0.28881
       9 -> 31         0.62826

 Excited State  65:      Singlet-A'    15.9297 eV   77.83 nm  f=0.0607  <S**2>=0.000
       4 -> 10        -0.38207
       5 -> 17         0.14720
       6 -> 19         0.45397
       7 -> 21        -0.15011
       9 -> 31         0.28481

 Excited State  66:      Singlet-A'    16.0876 eV   77.07 nm  f=0.1050  <S**2>=0.000
       4 -> 10        -0.21859
       5 -> 17         0.55723
       6 -> 19        -0.22314
       7 -> 21         0.24760

 Excited State  67:      Singlet-A"    16.1735 eV   76.66 nm  f=0.1149  <S**2>=0.000
       5 -> 15         0.14254
       5 -> 16        -0.14325
       6 -> 20         0.62352
       8 -> 24         0.11690

 Excited State  68:      Singlet-A'    16.2183 eV   76.45 nm  f=0.0886  <S**2>=0.000
       4 -> 10        -0.37255
       5 -> 17        -0.32956
       7 -> 21         0.46247

 Excited State  69:      Singlet-A"    16.4560 eV   75.34 nm  f=0.0319  <S**2>=0.000
       7 -> 22         0.63369
       8 -> 24        -0.27648

 Excited State  70:      Singlet-A"    16.5297 eV   75.01 nm  f=0.0638  <S**2>=0.000
       7 -> 22         0.29287
       8 -> 24         0.61347

 Excited State  71:      Singlet-A'    16.5977 eV   74.70 nm  f=0.0399  <S**2>=0.000
       4 -> 10         0.28990
       6 -> 19         0.20470
       6 -> 21         0.10777
       6 -> 23        -0.11268
       7 -> 21         0.33539
       7 -> 23        -0.12188
       7 -> 24         0.10879
       9 -> 33         0.36722
       9 -> 34        -0.10324

 Excited State  72:      Singlet-A"    16.6877 eV   74.30 nm  f=0.0061  <S**2>=0.000
       5 -> 18         0.69256

 Excited State  73:      Singlet-A'    16.7410 eV   74.06 nm  f=0.0099  <S**2>=0.000
       4 -> 10        -0.14227
       6 -> 19        -0.10687
       7 -> 21        -0.18998
       9 -> 33         0.59365
       9 -> 34         0.16265

 Excited State  74:      Singlet-A'    16.8885 eV   73.41 nm  f=0.0318  <S**2>=0.000
       7 -> 21         0.11461
       7 -> 23         0.66245

 Excited State  75:      Singlet-A'    17.1265 eV   72.39 nm  f=0.0087  <S**2>=0.000
       4 -> 11         0.53291
       6 -> 21        -0.36944
       7 -> 24         0.20843

 Excited State  76:      Singlet-A'    17.1382 eV   72.34 nm  f=0.0025  <S**2>=0.000
       5 -> 20         0.12853
       6 -> 21         0.17310
       7 -> 24         0.13777
       9 -> 34         0.63872

 Excited State  77:      Singlet-A"    17.1558 eV   72.27 nm  f=0.0101  <S**2>=0.000
       5 -> 19        -0.11123
       8 -> 25         0.69224

 Excited State  78:      Singlet-A"    17.2747 eV   71.77 nm  f=0.0311  <S**2>=0.000
       5 -> 19         0.65784
       6 -> 22        -0.14051
       8 -> 25         0.12061

 Excited State  79:      Singlet-A'    17.4029 eV   71.24 nm  f=0.0063  <S**2>=0.000
       4 -> 11        -0.34921
       6 -> 21        -0.36405
       7 -> 24         0.39123
       8 -> 26         0.15803
       8 -> 27        -0.10102
       8 -> 28         0.10367

 Excited State  80:      Singlet-A"    17.4534 eV   71.04 nm  f=0.0092  <S**2>=0.000
       5 -> 19         0.13424
       6 -> 22         0.68850

 Excited State  81:      Singlet-A'    17.4689 eV   70.97 nm  f=0.0187  <S**2>=0.000
       5 -> 20         0.53278
       6 -> 21        -0.26300
       7 -> 24        -0.24916
       8 -> 26        -0.18714

 Excited State  82:      Singlet-A'    17.5703 eV   70.56 nm  f=0.0144  <S**2>=0.000
       5 -> 20         0.21577
       8 -> 26         0.64187

 Excited State  83:      Singlet-A'    17.6715 eV   70.16 nm  f=0.1198  <S**2>=0.000
       5 -> 20         0.32752
       6 -> 21         0.26074
       7 -> 24         0.36652
       7 -> 25         0.15533
       8 -> 26        -0.13556
       8 -> 27        -0.12244
       9 -> 34        -0.16715
       9 -> 36        -0.14139

 Excited State  84:      Singlet-A"    17.6791 eV   70.13 nm  f=0.0002  <S**2>=0.000
       9 -> 35         0.70115

 Excited State  85:      Singlet-A"    17.8191 eV   69.58 nm  f=0.0009  <S**2>=0.000
       4 -> 12         0.69468

 Excited State  86:      Singlet-A'    17.8742 eV   69.36 nm  f=0.0349  <S**2>=0.000
       6 -> 23         0.54643
       8 -> 27        -0.10671
       8 -> 28         0.10247
       9 -> 36         0.38978

 Excited State  87:      Singlet-A'    18.0677 eV   68.62 nm  f=0.0208  <S**2>=0.000
       6 -> 23        -0.25589
       6 -> 24         0.27411
       7 -> 25         0.38162
       8 -> 28         0.13734
       9 -> 36         0.41226

 Excited State  88:      Singlet-A"    18.1783 eV   68.20 nm  f=0.0041  <S**2>=0.000
       8 -> 30         0.11146
       9 -> 37         0.68699

 Excited State  89:      Singlet-A'    18.2034 eV   68.11 nm  f=0.0034  <S**2>=0.000
       4 -> 13         0.13902
       6 -> 24        -0.43336
       6 -> 25         0.10155
       7 -> 25         0.44109
       8 -> 28         0.19993

 Excited State  90:      Singlet-A"    18.3088 eV   67.72 nm  f=0.0047  <S**2>=0.000
       5 -> 21        -0.10895
       7 -> 27        -0.10882
       8 -> 29         0.57714
       8 -> 30         0.34530

 Excited State  91:      Singlet-A'    18.3407 eV   67.60 nm  f=0.0615  <S**2>=0.000
       4 -> 13        -0.15843
       7 -> 25        -0.10958
       8 -> 27         0.48360
       8 -> 28         0.38907
       9 -> 36        -0.10756

 Excited State  92:      Singlet-A"    18.3716 eV   67.49 nm  f=0.0145  <S**2>=0.000
       5 -> 21        -0.34133
       7 -> 26        -0.14249
       7 -> 27         0.11095
       8 -> 29        -0.31186
       8 -> 30         0.48471

 Excited State  93:      Singlet-A'    18.4769 eV   67.10 nm  f=0.0632  <S**2>=0.000
       4 -> 13         0.58967
       6 -> 25        -0.10970
       7 -> 24         0.15663
       7 -> 25        -0.14357
       8 -> 27         0.15815
       9 -> 36         0.14610

 Excited State  94:      Singlet-A"    18.5177 eV   66.95 nm  f=0.0157  <S**2>=0.000
       7 -> 26         0.66700
       8 -> 29        -0.13173
       8 -> 30         0.14022

 Excited State  95:      Singlet-A'    18.5575 eV   66.81 nm  f=0.1793  <S**2>=0.000
       4 -> 13         0.18311
       6 -> 23         0.21712
       6 -> 24         0.35449
       6 -> 25         0.21890
       7 -> 25         0.22525
       7 -> 30         0.14519
       8 -> 27         0.17596
       8 -> 28        -0.24311
       9 -> 36        -0.15450

 Excited State  96:      Singlet-A"    18.6006 eV   66.66 nm  f=0.0428  <S**2>=0.000
       4 -> 14         0.11880
       5 -> 21         0.58464
       7 -> 26        -0.11110
       7 -> 27         0.12371
       8 -> 30         0.28167
       9 -> 37        -0.11001

 Excited State  97:      Singlet-A'    18.7794 eV   66.02 nm  f=0.0593  <S**2>=0.000
       4 -> 13        -0.12838
       5 -> 22         0.59102
       7 -> 29        -0.13213
       8 -> 27         0.20957
       8 -> 28        -0.17582

 Excited State  98:      Singlet-A"    18.8663 eV   65.72 nm  f=0.0233  <S**2>=0.000
       4 -> 14         0.64292
       5 -> 23         0.20100
       5 -> 24         0.10124
       8 -> 30        -0.10937

 Excited State  99:      Singlet-A'    18.8693 eV   65.71 nm  f=0.0856  <S**2>=0.000
       4 -> 13         0.14954
       5 -> 22         0.35103
       6 -> 24         0.21661
       6 -> 25         0.12761
       7 -> 29         0.20771
       8 -> 27        -0.23013
       8 -> 28         0.32411
       9 -> 36        -0.16422

 Excited State 100:      Singlet-A"    19.0525 eV   65.07 nm  f=0.0073  <S**2>=0.000
       4 -> 14        -0.16482
       5 -> 23         0.65127
       5 -> 24        -0.11775
       7 -> 27        -0.13561

 Excited State 101:      Singlet-A"    19.0671 eV   65.03 nm  f=0.0125  <S**2>=0.000
       5 -> 23         0.15713
       7 -> 27         0.46401
       7 -> 28         0.49398

 Excited State 102:      Singlet-A'    19.3067 eV   64.22 nm  f=0.0083  <S**2>=0.000
       4 -> 15        -0.20501
       6 -> 25         0.10887
       7 -> 29         0.19334
       8 -> 32         0.62363

 Excited State 103:      Singlet-A"    19.3178 eV   64.18 nm  f=0.0234  <S**2>=0.000
       5 -> 24         0.19137
       6 -> 26         0.17062
       7 -> 27         0.17641
       7 -> 28        -0.21921
       8 -> 31         0.57831

 Excited State 104:      Singlet-A'    19.3650 eV   64.02 nm  f=0.1405  <S**2>=0.000
       6 -> 25         0.47287
       7 -> 30        -0.40061
       8 -> 27         0.11381
       8 -> 32        -0.14602
       9 -> 38         0.13750

 Excited State 105:      Singlet-A"    19.3966 eV   63.92 nm  f=0.0156  <S**2>=0.000
       4 -> 17        -0.11418
       5 -> 24        -0.16095
       6 -> 26        -0.14925
       7 -> 27        -0.33284
       7 -> 28         0.36553
       8 -> 29        -0.10337
       8 -> 31         0.37422

 Excited State 106:      Singlet-A'    19.4156 eV   63.86 nm  f=0.0769  <S**2>=0.000
       4 -> 15         0.19198
       6 -> 25         0.18978
       6 -> 29        -0.10371

 The electronic state is 1-A'.
 Alpha  occ. eigenvalues --  -14.00196  -9.93949  -0.78525  -0.58452  -0.43895
 Alpha  occ. eigenvalues --   -0.39142  -0.35597  -0.32168  -0.19309
 Alpha virt. eigenvalues --    0.00265   0.03670   0.06667   0.08520   0.10086
 Alpha virt. eigenvalues --    0.12685   0.13216   0.14731   0.17329   0.18884
 Alpha virt. eigenvalues --    0.19707   0.23904   0.25017   0.26073   0.27625

 Mulliken charges:
               1
     1  C    1.012994
     2  N   -0.121647
     3  H   -0.171138
     4  H   -0.280450
     5  H   -0.280450
     6  H   -0.079655
     7  H   -0.079655
 Sum of Mulliken charges =   0.00000

 Dipole moment (field-independent basis, Debye):
    X=              1.2152    Y=              0.3237    Z=             -0.0000  Tot=              1.2575
 Quadrupole moment (field-independent basis, Debye-Ang):
   XX=            -15.3492   YY=            -14.7320   ZZ=            -12.9975
   XY=             -2.0727   XZ=              0.0000   YZ=              0.0000

 Normal termination of Gaussian 16 at Mon Mar 21 04:00:50 2022.
