 Gaussian 16, Revision C.01,
 Gaussian 16:  EM64L-G16RevC.01  3-Jul-2019

 --------------------------------------------------------------------
 #P TD(Nstates=10000) blyp/Gen SCF(maxcycles=100) Int(Grid=ultrafine)
 --------------------------------------------------------------------

 ---------------------
 xGDB7_00001_tier4.com
 ---------------------
 Symbolic Z-matrix:
 Charge =  0 Multiplicity = 1

                         Standard orientation:
 ---------------------------------------------------------------------
 Center     Atomic      Atomic             Coordinates (Angstroms)
 Number     Number       Type             X           Y           Z
 ---------------------------------------------------------------------
      1          9           0        0.000000    1.098813   -0.289120
      2          6           0       -0.000000   -0.000000    0.499944
      3          9           0       -0.000000   -1.098813   -0.289120
      4          1           0       -0.911346    0.000000    1.102246
      5          1           0        0.911346   -0.000000    1.102246
 ---------------------------------------------------------------------

 SCF Done:  E(RB-LYP) =  -238.786954276     A.U. after   11 cycles

 Excitation energies and oscillator strengths:

 Excited State   1:      Singlet-B1     8.3138 eV  149.13 nm  f=0.0209  <S**2>=0.000
      13 -> 14         0.70641
 This state for optimization and/or second-order correction.
 Total Energy, E(TD-HF/TD-DFT) =  -238.481428115
 Copying the excited state density for this state as the 1-particle RhoCI density.

 Excited State   2:      Singlet-A2     9.2160 eV  134.53 nm  f=0.0000  <S**2>=0.000
      13 -> 15         0.70630

 Excited State   3:      Singlet-B1     9.6207 eV  128.87 nm  f=0.0202  <S**2>=0.000
      13 -> 16         0.70547

 Excited State   4:      Singlet-B2     9.7215 eV  127.54 nm  f=0.0330  <S**2>=0.000
      12 -> 14         0.70450

 Excited State   5:      Singlet-A1     9.7871 eV  126.68 nm  f=0.0562  <S**2>=0.000
      11 -> 14        -0.16323
      13 -> 17         0.68284

 Excited State   6:      Singlet-A2    10.1553 eV  122.09 nm  f=0.0000  <S**2>=0.000
      10 -> 14         0.70684

 Excited State   7:      Singlet-A1    10.2019 eV  121.53 nm  f=0.0057  <S**2>=0.000
      11 -> 14         0.68302
      13 -> 17         0.15417

 Excited State   8:      Singlet-A1    10.7630 eV  115.19 nm  f=0.0130  <S**2>=0.000
      12 -> 15         0.69343

 Excited State   9:      Singlet-A2    11.0671 eV  112.03 nm  f=0.0000  <S**2>=0.000
      12 -> 17         0.70698

 Excited State  10:      Singlet-B1    11.0832 eV  111.87 nm  f=0.0002  <S**2>=0.000
      10 -> 15         0.57779
      13 -> 18        -0.40389

 Excited State  11:      Singlet-B2    11.0956 eV  111.74 nm  f=0.0000  <S**2>=0.000
      11 -> 15         0.36322
      12 -> 16         0.60423

 Excited State  12:      Singlet-B1    11.1616 eV  111.08 nm  f=0.0662  <S**2>=0.000
      10 -> 15         0.40193
      13 -> 18         0.56952

 Excited State  13:      Singlet-B2    11.4008 eV  108.75 nm  f=0.0539  <S**2>=0.000
      10 -> 17         0.20083
      11 -> 15         0.54572
      12 -> 16        -0.32333
      13 -> 22         0.17819

 Excited State  14:      Singlet-A1    11.4766 eV  108.03 nm  f=0.1108  <S**2>=0.000
      11 -> 16         0.70116

 Excited State  15:      Singlet-A2    11.4817 eV  107.98 nm  f=0.0000  <S**2>=0.000
      10 -> 16         0.70481

 Excited State  16:      Singlet-B1    11.4824 eV  107.98 nm  f=0.0483  <S**2>=0.000
      11 -> 17         0.69978

 Excited State  17:      Singlet-B2    11.5550 eV  107.30 nm  f=0.0637  <S**2>=0.000
      10 -> 17         0.67640
      11 -> 15        -0.15201

 Excited State  18:      Singlet-A2    11.6691 eV  106.25 nm  f=0.0000  <S**2>=0.000
      13 -> 19         0.70472

 Excited State  19:      Singlet-B1    12.0278 eV  103.08 nm  f=0.0099  <S**2>=0.000
      13 -> 21         0.70283

 Excited State  20:      Singlet-B2    12.0998 eV  102.47 nm  f=0.0128  <S**2>=0.000
      11 -> 15        -0.13344
      12 -> 18         0.11318
      13 -> 22         0.66609

 Excited State  21:      Singlet-A1    12.3137 eV  100.69 nm  f=0.0491  <S**2>=0.000
      13 -> 20         0.67319

 Excited State  22:      Singlet-B2    12.4580 eV   99.52 nm  f=0.0007  <S**2>=0.000
      12 -> 18         0.69103

 Excited State  23:      Singlet-A2    12.7862 eV   96.97 nm  f=0.0000  <S**2>=0.000
      10 -> 18         0.11617
      13 -> 23         0.69488

 Excited State  24:      Singlet-A2    12.8625 eV   96.39 nm  f=0.0000  <S**2>=0.000
      10 -> 18         0.69714
      13 -> 23        -0.11576

 Excited State  25:      Singlet-A1    12.8830 eV   96.24 nm  f=0.0123  <S**2>=0.000
      11 -> 18         0.69983

 Excited State  26:      Singlet-A1    13.0724 eV   94.84 nm  f=0.0059  <S**2>=0.000
      12 -> 19         0.70493

 Excited State  27:      Singlet-A2    13.4044 eV   92.50 nm  f=0.0000  <S**2>=0.000
      12 -> 20         0.70671

 Excited State  28:      Singlet-B2    13.4326 eV   92.30 nm  f=0.0645  <S**2>=0.000
      11 -> 19        -0.29440
      12 -> 21         0.63898

 Excited State  29:      Singlet-B1    13.4364 eV   92.27 nm  f=0.0105  <S**2>=0.000
      12 -> 22         0.69878

 Excited State  30:      Singlet-B1    13.5318 eV   91.62 nm  f=0.0009  <S**2>=0.000
      10 -> 19         0.69542

 Excited State  31:      Singlet-B2    13.5821 eV   91.29 nm  f=0.0001  <S**2>=0.000
       9 -> 14        -0.38937
      10 -> 20        -0.21062
      11 -> 19         0.48660
      12 -> 21         0.24302

 Excited State  32:      Singlet-B2    13.6132 eV   91.08 nm  f=0.0004  <S**2>=0.000
       9 -> 14         0.58438
      10 -> 20        -0.20962
      11 -> 19         0.31229
      12 -> 21         0.10939

 Excited State  33:      Singlet-B1    13.7111 eV   90.43 nm  f=0.0789  <S**2>=0.000
       7 -> 14         0.60971
      13 -> 24         0.33894

 Excited State  34:      Singlet-A1    13.7442 eV   90.21 nm  f=0.0373  <S**2>=0.000
       8 -> 14         0.66944
      11 -> 21         0.12513

 Excited State  35:      Singlet-B1    13.7758 eV   90.00 nm  f=0.0421  <S**2>=0.000
       7 -> 14        -0.31601
      11 -> 20         0.31390
      13 -> 24         0.52895

 Excited State  36:      Singlet-A2    13.8169 eV   89.73 nm  f=0.0000  <S**2>=0.000
      11 -> 22         0.70632

 Excited State  37:      Singlet-B1    13.8246 eV   89.68 nm  f=0.0108  <S**2>=0.000
      11 -> 20         0.62173
      13 -> 24        -0.29716

 Excited State  38:      Singlet-A1    13.8490 eV   89.53 nm  f=0.0024  <S**2>=0.000
      10 -> 22         0.44973
      11 -> 21         0.53975

 Excited State  39:      Singlet-A2    13.8922 eV   89.25 nm  f=0.0000  <S**2>=0.000
      10 -> 21         0.70498

 Excited State  40:      Singlet-A1    14.1230 eV   87.79 nm  f=0.0038  <S**2>=0.000
      10 -> 22         0.41912
      11 -> 21        -0.37253
      12 -> 23        -0.38905

 Excited State  41:      Singlet-B2    14.2034 eV   87.29 nm  f=0.0041  <S**2>=0.000
      10 -> 20         0.59356
      11 -> 19         0.19884
      11 -> 23        -0.16244
      12 -> 21         0.11187
      12 -> 24        -0.18210

 Excited State  42:      Singlet-A1    14.3657 eV   86.31 nm  f=0.0029  <S**2>=0.000
       7 -> 17        -0.17069
       8 -> 14         0.10396
       8 -> 16         0.11186
       9 -> 15        -0.12899
      10 -> 22         0.27457
      11 -> 21        -0.15617
      12 -> 23         0.56238

 Excited State  43:      Singlet-B1    14.5706 eV   85.09 nm  f=0.0726  <S**2>=0.000
       8 -> 17         0.12194
      10 -> 23        -0.16528
      13 -> 25         0.65710

 Excited State  44:      Singlet-A2    14.5787 eV   85.04 nm  f=0.0000  <S**2>=0.000
       7 -> 15         0.70392

 Excited State  45:      Singlet-B2    14.5904 eV   84.98 nm  f=0.0071  <S**2>=0.000
       8 -> 15        -0.43147
       9 -> 16         0.13557
      11 -> 23         0.52714

 Excited State  46:      Singlet-A1    14.6628 eV   84.56 nm  f=0.0187  <S**2>=0.000
       7 -> 17         0.11226
       8 -> 16         0.31469
       9 -> 15         0.60167

 Excited State  47:      Singlet-B2    14.6746 eV   84.49 nm  f=0.1058  <S**2>=0.000
       8 -> 15         0.53818
       9 -> 16         0.13993
      11 -> 23         0.39779
      13 -> 26         0.13951

 Excited State  48:      Singlet-B1    14.6937 eV   84.38 nm  f=0.0000  <S**2>=0.000
      10 -> 23         0.68039
      13 -> 25         0.15718

 Excited State  49:      Singlet-B2    14.9525 eV   82.92 nm  f=0.0846  <S**2>=0.000
       9 -> 16         0.65687
      11 -> 23        -0.14975
      12 -> 24         0.17384

 Excited State  50:      Singlet-A2    14.9592 eV   82.88 nm  f=0.0000  <S**2>=0.000
       9 -> 17         0.70541

 Excited State  51:      Singlet-B1    15.0043 eV   82.63 nm  f=0.0680  <S**2>=0.000
       7 -> 16        -0.18099
       8 -> 17         0.67062

 Excited State  52:      Singlet-A1    15.0943 eV   82.14 nm  f=0.1147  <S**2>=0.000
       8 -> 16         0.59966
       9 -> 15        -0.26073
      13 -> 27        -0.12175

 Excited State  53:      Singlet-B1    15.1317 eV   81.94 nm  f=0.0568  <S**2>=0.000
       7 -> 16         0.65930
       7 -> 18         0.13324
       8 -> 17         0.16613

 Excited State  54:      Singlet-A1    15.4164 eV   80.42 nm  f=0.0076  <S**2>=0.000
       7 -> 17         0.57970
      11 -> 24         0.31721

 Excited State  55:      Singlet-B2    15.4243 eV   80.38 nm  f=0.1555  <S**2>=0.000
       8 -> 15        -0.10833
      12 -> 24         0.16042
      13 -> 26         0.67249

 Excited State  56:      Singlet-B2    15.5820 eV   79.57 nm  f=0.0460  <S**2>=0.000
       9 -> 16        -0.10238
       9 -> 18        -0.16396
      10 -> 20         0.10045
      12 -> 24         0.54170
      12 -> 25         0.34086
      13 -> 26        -0.10420

 Excited State  57:      Singlet-A2    15.6870 eV   79.04 nm  f=0.0000  <S**2>=0.000
      10 -> 24         0.67164
      13 -> 28        -0.20923

 Excited State  58:      Singlet-A1    15.6941 eV   79.00 nm  f=0.0606  <S**2>=0.000
       7 -> 17        -0.24439
      11 -> 24         0.60345
      13 -> 27         0.17996
      13 -> 30        -0.11147

 Excited State  59:      Singlet-A2    15.8138 eV   78.40 nm  f=0.0000  <S**2>=0.000
      10 -> 24         0.20277
      13 -> 28         0.67322

 Excited State  60:      Singlet-A1    15.8596 eV   78.18 nm  f=0.0306  <S**2>=0.000
       8 -> 18         0.12040
      11 -> 24        -0.15595
      11 -> 25        -0.10924
      13 -> 27         0.64517

 Excited State  61:      Singlet-B1    15.9768 eV   77.60 nm  f=0.0010  <S**2>=0.000
       7 -> 18        -0.11662
      13 -> 29         0.68464

 Excited State  62:      Singlet-B2    16.0062 eV   77.46 nm  f=0.0665  <S**2>=0.000
       9 -> 18         0.25531
      12 -> 24        -0.22574
      12 -> 25         0.59622

 Excited State  63:      Singlet-A1    16.3254 eV   75.95 nm  f=0.0224  <S**2>=0.000
       8 -> 18         0.13518
      11 -> 25         0.66622
      13 -> 30        -0.16005

 Excited State  64:      Singlet-A2    16.3578 eV   75.80 nm  f=0.0000  <S**2>=0.000
      10 -> 25         0.70119

 Excited State  65:      Singlet-A1    16.4481 eV   75.38 nm  f=0.0425  <S**2>=0.000
       8 -> 18         0.64707
       9 -> 19        -0.18882
      11 -> 25        -0.10441

 Excited State  66:      Singlet-B2    16.4940 eV   75.17 nm  f=0.0280  <S**2>=0.000
       8 -> 19        -0.22272
       9 -> 18         0.59848
       9 -> 21         0.10384
      11 -> 28         0.11272
      12 -> 24         0.14103
      12 -> 25        -0.12278

 Excited State  67:      Singlet-B1    16.6510 eV   74.46 nm  f=0.1155  <S**2>=0.000
       7 -> 18         0.62641
       8 -> 20        -0.13241
      12 -> 26         0.23207

 Excited State  68:      Singlet-B1    16.8208 eV   73.71 nm  f=0.0374  <S**2>=0.000
       7 -> 18        -0.20306
      12 -> 26         0.66619

 Excited State  69:      Singlet-A1    16.9173 eV   73.29 nm  f=0.0003  <S**2>=0.000
       6 -> 14         0.12273
       7 -> 20        -0.14377
       9 -> 19         0.25756
      13 -> 30         0.60083

 Excited State  70:      Singlet-A2    17.0147 eV   72.87 nm  f=0.0000  <S**2>=0.000
       7 -> 19         0.70206

 Excited State  71:      Singlet-B2    17.1002 eV   72.50 nm  f=0.0030  <S**2>=0.000
       8 -> 19         0.62190
       8 -> 23        -0.10228
       9 -> 18         0.10309
       9 -> 21         0.21737
      11 -> 28         0.13149

 Excited State  72:      Singlet-A2    17.1547 eV   72.27 nm  f=0.0000  <S**2>=0.000
      11 -> 26        -0.14041
      12 -> 27         0.69035

 Excited State  73:      Singlet-A2    17.1794 eV   72.17 nm  f=0.0000  <S**2>=0.000
      11 -> 26         0.68668
      12 -> 27         0.13868

 Excited State  74:      Singlet-A1    17.2130 eV   72.03 nm  f=0.0055  <S**2>=0.000
       9 -> 19        -0.33427
      10 -> 26         0.30429
      12 -> 28         0.50011
      13 -> 30         0.10662

 Excited State  75:      Singlet-A1    17.2688 eV   71.80 nm  f=0.0126  <S**2>=0.000
       7 -> 20         0.11889
       8 -> 21         0.27280
      10 -> 26         0.51588
      12 -> 28        -0.37502

 Excited State  76:      Singlet-A2    17.2936 eV   71.69 nm  f=0.0000  <S**2>=0.000
       9 -> 20         0.70004

 Excited State  77:      Singlet-B2    17.3132 eV   71.61 nm  f=0.0019  <S**2>=0.000
       7 -> 22         0.31498
       9 -> 21         0.15062
      12 -> 29         0.60915

 Excited State  78:      Singlet-B1    17.3159 eV   71.60 nm  f=0.0098  <S**2>=0.000
       7 -> 21         0.18109
       8 -> 20        -0.36932
       9 -> 22         0.57033

 Excited State  79:      Singlet-A2    17.3289 eV   71.55 nm  f=0.0000  <S**2>=0.000
       8 -> 22         0.70412

 Excited State  80:      Singlet-A1    17.3376 eV   71.51 nm  f=0.0632  <S**2>=0.000
       6 -> 14        -0.18854
       8 -> 21         0.37062
       9 -> 19        -0.28010
       9 -> 23         0.10758
      10 -> 26        -0.35002
      11 -> 29        -0.19141
      12 -> 28        -0.16803
      13 -> 30         0.15762

 Excited State  81:      Singlet-B1    17.3453 eV   71.48 nm  f=0.0015  <S**2>=0.000
       7 -> 21         0.41043
       8 -> 20        -0.39415
       9 -> 22        -0.39919

 Excited State  82:      Singlet-B2    17.3784 eV   71.34 nm  f=0.0890  <S**2>=0.000
       7 -> 22         0.13401
       8 -> 19        -0.10118
       9 -> 21         0.59259
      10 -> 27         0.13764
      11 -> 28        -0.17557
      12 -> 29        -0.24300

 Excited State  83:      Singlet-B1    17.3923 eV   71.29 nm  f=0.0399  <S**2>=0.000
       7 -> 21         0.53487
       8 -> 20         0.39160
       9 -> 22         0.10633
      11 -> 27        -0.16014

 Excited State  84:      Singlet-B2    17.4192 eV   71.18 nm  f=0.0233  <S**2>=0.000
       7 -> 22         0.59586
       9 -> 21        -0.14687
      11 -> 28         0.21342
      12 -> 29        -0.25028

 Excited State  85:      Singlet-A1    17.4245 eV   71.16 nm  f=0.0183  <S**2>=0.000
       6 -> 14         0.12636
       6 -> 16         0.10303
       7 -> 20        -0.36058
       8 -> 21         0.47156
       9 -> 19         0.16725
      11 -> 29         0.15695
      12 -> 28         0.15589
      13 -> 30        -0.14303

 Excited State  86:      Singlet-A1    17.5084 eV   70.81 nm  f=0.0267  <S**2>=0.000
       6 -> 14         0.35762
       7 -> 20         0.51155
       8 -> 21         0.16951
      11 -> 29         0.12262
      12 -> 28         0.16044

 Excited State  87:      Singlet-B1    17.5898 eV   70.49 nm  f=0.0108  <S**2>=0.000
       8 -> 20         0.14771
      11 -> 27         0.67479

 Excited State  88:      Singlet-B2    17.6191 eV   70.37 nm  f=0.0754  <S**2>=0.000
      10 -> 27         0.67198
      11 -> 28         0.19688

 Excited State  89:      Singlet-A1    17.6462 eV   70.26 nm  f=0.0146  <S**2>=0.000
       6 -> 14         0.45465
       7 -> 20        -0.19207
       8 -> 21        -0.14291
       9 -> 19        -0.28873
       9 -> 23         0.27198
      12 -> 28        -0.14296
      13 -> 31         0.14760

 Excited State  90:      Singlet-B1    17.7643 eV   69.79 nm  f=0.0448  <S**2>=0.000
      10 -> 28         0.69462

 Excited State  91:      Singlet-A2    17.7799 eV   69.73 nm  f=0.0000  <S**2>=0.000
      10 -> 29         0.70488

 Excited State  92:      Singlet-B2    17.8604 eV   69.42 nm  f=0.0033  <S**2>=0.000
       8 -> 23         0.32955
       9 -> 21         0.14367
       9 -> 24         0.13768
      10 -> 27        -0.13102
      11 -> 28         0.53706

 Excited State  93:      Singlet-A1    17.8732 eV   69.37 nm  f=0.0254  <S**2>=0.000
       6 -> 14        -0.15948
       9 -> 19        -0.12482
      11 -> 29         0.63122
      13 -> 30         0.12719

 Excited State  94:      Singlet-A2    18.1333 eV   68.37 nm  f=0.0000  <S**2>=0.000
       7 -> 23         0.70506

 Excited State  95:      Singlet-A1    18.1937 eV   68.15 nm  f=0.1074  <S**2>=0.000
       7 -> 20         0.10592
       9 -> 23        -0.17792
      13 -> 31         0.66440

 Excited State  96:      Singlet-A2    18.1973 eV   68.13 nm  f=0.0000  <S**2>=0.000
      12 -> 30         0.70635

 Excited State  97:      Singlet-B2    18.2762 eV   67.84 nm  f=0.0004  <S**2>=0.000
       6 -> 15        -0.26373
       8 -> 23         0.55288
       9 -> 24        -0.18498
      10 -> 30        -0.11510
      11 -> 28        -0.16755

 Excited State  98:      Singlet-B1    18.2916 eV   67.78 nm  f=0.0102  <S**2>=0.000
      13 -> 32         0.69522

 Excited State  99:      Singlet-A1    18.4389 eV   67.24 nm  f=0.0592  <S**2>=0.000
       6 -> 14        -0.15245
       6 -> 16        -0.17350
       8 -> 24        -0.32616
       9 -> 19         0.13165
       9 -> 23         0.52960
      13 -> 31         0.10799

 Excited State 100:      Singlet-B2    18.5885 eV   66.70 nm  f=0.0002  <S**2>=0.000
       6 -> 15         0.60416
       8 -> 23         0.17891
      10 -> 30        -0.25213

 Excited State 101:      Singlet-B1    18.5984 eV   66.66 nm  f=0.0014  <S**2>=0.000
      11 -> 30         0.68750

 Excited State 102:      Singlet-A2    18.6596 eV   66.45 nm  f=0.0000  <S**2>=0.000
      13 -> 33         0.70404

 Excited State 103:      Singlet-B2    18.6998 eV   66.30 nm  f=0.0106  <S**2>=0.000
       6 -> 15         0.17527
       9 -> 24        -0.22877
      10 -> 30         0.62732

 Excited State 104:      Singlet-B1    18.8843 eV   65.65 nm  f=0.0070  <S**2>=0.000
       6 -> 17         0.64102
       7 -> 24        -0.26780

 Excited State 105:      Singlet-A1    18.8854 eV   65.65 nm  f=0.0250  <S**2>=0.000
       6 -> 16         0.62600
       8 -> 24        -0.25560

 Excited State 106:      Singlet-B1    18.9334 eV   65.48 nm  f=0.0208  <S**2>=0.000
       7 -> 24         0.13183
      13 -> 34         0.69001

 Excited State 107:      Singlet-A2    19.1443 eV   64.76 nm  f=0.0000  <S**2>=0.000
      13 -> 35         0.70319

 Excited State 108:      Singlet-B1    19.2469 eV   64.42 nm  f=0.0042  <S**2>=0.000
       6 -> 17         0.25684
       7 -> 24         0.62737
      13 -> 34        -0.12778

 Excited State 109:      Singlet-B2    19.4908 eV   63.61 nm  f=0.1125  <S**2>=0.000
       9 -> 24         0.51138
       9 -> 25         0.31127
      10 -> 30         0.10124
      10 -> 31         0.20734
      12 -> 32         0.15295
      13 -> 36        -0.10038

 Excited State 110:      Singlet-A2    19.5684 eV   63.36 nm  f=0.0000  <S**2>=0.000
      12 -> 31         0.70529

 Excited State 111:      Singlet-B2    19.7565 eV   62.76 nm  f=0.0560  <S**2>=0.000
      10 -> 31        -0.13718
      12 -> 32         0.67438

 Excited State 112:      Singlet-A1    19.7790 eV   62.68 nm  f=0.0016  <S**2>=0.000
       6 -> 16         0.11850
       6 -> 18        -0.10228
       8 -> 24         0.28675
       8 -> 25         0.55104
       9 -> 23         0.12352
       9 -> 28         0.11514
      11 -> 32         0.14906

 Excited State 113:      Singlet-B2    19.8415 eV   62.49 nm  f=0.0002  <S**2>=0.000
       9 -> 24        -0.14835
       9 -> 25         0.58450
      10 -> 31        -0.33767

 Excited State 114:      Singlet-A1    19.8879 eV   62.34 nm  f=0.0005  <S**2>=0.000
       6 -> 16        -0.10441
       6 -> 18        -0.14853
       8 -> 24        -0.34158
       8 -> 25         0.38647
       9 -> 23        -0.12208
       9 -> 28        -0.16136
      11 -> 32        -0.32159

 Excited State 115:      Singlet-B1    19.8926 eV   62.33 nm  f=0.0004  <S**2>=0.000
       7 -> 25         0.68143
      11 -> 31        -0.11165

 Excited State 116:      Singlet-B1    19.9910 eV   62.02 nm  f=0.0387  <S**2>=0.000
       7 -> 25         0.10997
      11 -> 31         0.68859

 Excited State 117:      Singlet-A1    20.1780 eV   61.45 nm  f=0.0006  <S**2>=0.000
      11 -> 32        -0.21443
      12 -> 33         0.65952

 Excited State 118:      Singlet-B2    20.1909 eV   61.41 nm  f=0.0538  <S**2>=0.000
       9 -> 24        -0.17200
       9 -> 25         0.17403
      10 -> 31         0.51499
      11 -> 33        -0.17975
      12 -> 34         0.25947
      13 -> 36         0.15017

 Excited State 119:      Singlet-A2    20.2291 eV   61.29 nm  f=0.0000  <S**2>=0.000
      10 -> 32         0.70262

 Excited State 120:      Singlet-A1    20.2545 eV   61.21 nm  f=0.1259  <S**2>=0.000
       6 -> 18        -0.12831
       8 -> 24        -0.19380
       9 -> 23        -0.10953
       9 -> 28        -0.19922
      11 -> 32         0.53795
      12 -> 33         0.21124
      12 -> 35        -0.14098

 Excited State 121:      Singlet-A1    20.3386 eV   60.96 nm  f=0.0167  <S**2>=0.000
       6 -> 18         0.63671
       8 -> 25         0.15504
       8 -> 29        -0.12027

 Excited State 122:      Singlet-B2    20.4047 eV   60.76 nm  f=0.0581  <S**2>=0.000
      10 -> 31        -0.10658
      11 -> 33         0.21636
      12 -> 34         0.63093
      13 -> 36        -0.10429

 Excited State 123:      Singlet-B2    20.5675 eV   60.28 nm  f=0.0270  <S**2>=0.000
       7 -> 26        -0.14167
      10 -> 31         0.13997
      11 -> 33         0.63605
      12 -> 34        -0.12733
      13 -> 36         0.11447

 Excited State 124:      Singlet-B1    20.6327 eV   60.09 nm  f=0.0203  <S**2>=0.000
       9 -> 26         0.41414
      10 -> 33         0.56360

 Excited State 125:      Singlet-A1    20.6511 eV   60.04 nm  f=0.0374  <S**2>=0.000
       9 -> 28        -0.12513
      12 -> 35         0.67176

 Excited State 126:      Singlet-A2    20.7004 eV   59.89 nm  f=0.0000  <S**2>=0.000
       8 -> 26         0.70463

 Excited State 127:      Singlet-B2    20.7479 eV   59.76 nm  f=0.0085  <S**2>=0.000

 The electronic state is 1-A1.
 Alpha  occ. eigenvalues --  -24.32216 -24.32213 -10.08998  -1.14335  -1.08523
 Alpha  occ. eigenvalues --   -0.63453  -0.49760  -0.49630  -0.49622  -0.37054
 Alpha  occ. eigenvalues --   -0.36778  -0.35365  -0.30132
 Alpha virt. eigenvalues --    0.00229   0.03330   0.04832   0.05325   0.10203
 Alpha virt. eigenvalues --    0.12628   0.13835   0.13969   0.14044   0.16787
 Alpha virt. eigenvalues --    0.20242   0.22993   0.26453   0.27717   0.28046

 Mulliken charges:
               1
     1  F   -0.346344
     2  C    1.320960
     3  F   -0.346344
     4  H   -0.314135
     5  H   -0.314135
 Sum of Mulliken charges =   0.00000

 Dipole moment (field-independent basis, Debye):
    X=              0.0000    Y=             -0.0000    Z=              1.8631  Tot=              1.8631
 Quadrupole moment (field-independent basis, Debye-Ang):
   XX=            -15.7447   YY=            -19.4353   ZZ=            -15.8133
   XY=             -0.0000   XZ=             -0.0000   YZ=             -0.0000

 Normal termination of Gaussian 16 at Mon Mar 21 20:09:51 2022.
