 Gaussian 16, Revision C.01,
 Gaussian 16:  EM64L-G16RevC.01  3-Jul-2019

 --------------------------------------------------------------------
 #P TD(Nstates=10000) blyp/Gen SCF(maxcycles=100) Int(Grid=ultrafine)
 --------------------------------------------------------------------

 ---------------------
 xGDB7_00001_tier4.com
 ---------------------
 Symbolic Z-matrix:
 Charge =  0 Multiplicity = 1

                         Standard orientation:
 ---------------------------------------------------------------------
 Center     Atomic      Atomic             Coordinates (Angstroms)
 Number     Number       Type             X           Y           Z
 ---------------------------------------------------------------------
      1          6           0       -1.240791   -0.237624   -0.027525
      2          6           0        0.048946    0.559205    0.053709
      3          7           0        1.202342   -0.317606   -0.116703
      4          1           0       -2.109817    0.415828    0.064703
      5          1           0       -1.292929   -0.976209    0.776809
      6          1           0       -1.300329   -0.769884   -0.977746
      7          1           0        0.066306    1.122818    0.997967
      8          1           0        0.069957    1.296574   -0.752592
      9          1           0        1.236408   -1.003082    0.627159
     10          1           0        2.065080    0.207710   -0.076483
 ---------------------------------------------------------------------

 SCF Done:  E(RB-LYP) =  -135.006126403     A.U. after   13 cycles

 Excitation energies and oscillator strengths:

 Excited State   1:      Singlet-A      5.4016 eV  229.53 nm  f=0.0106  <S**2>=0.000
      13 -> 14         0.70610
 This state for optimization and/or second-order correction.
 Total Energy, E(TD-HF/TD-DFT) =  -134.807621142
 Copying the excited state density for this state as the 1-particle RhoCI density.

 Excited State   2:      Singlet-A      6.1661 eV  201.07 nm  f=0.0031  <S**2>=0.000
      13 -> 15         0.70137

 Excited State   3:      Singlet-A      6.4646 eV  191.79 nm  f=0.0255  <S**2>=0.000
      13 -> 16         0.70111

 Excited State   4:      Singlet-A      7.0845 eV  175.01 nm  f=0.0624  <S**2>=0.000
      13 -> 17         0.70517

 Excited State   5:      Singlet-A      7.5193 eV  164.89 nm  f=0.0218  <S**2>=0.000
      13 -> 18         0.70477

 Excited State   6:      Singlet-A      8.0156 eV  154.68 nm  f=0.0083  <S**2>=0.000
      13 -> 19         0.70215

 Excited State   7:      Singlet-A      8.2411 eV  150.45 nm  f=0.0054  <S**2>=0.000
      13 -> 20         0.69926

 Excited State   8:      Singlet-A      8.3148 eV  149.11 nm  f=0.0018  <S**2>=0.000
      12 -> 14         0.69763

 Excited State   9:      Singlet-A      8.4990 eV  145.88 nm  f=0.0127  <S**2>=0.000
      13 -> 21         0.69431

 Excited State  10:      Singlet-A      8.7872 eV  141.10 nm  f=0.0032  <S**2>=0.000
      11 -> 14         0.70178

 Excited State  11:      Singlet-A      8.9392 eV  138.70 nm  f=0.0602  <S**2>=0.000
      10 -> 14         0.70266

 Excited State  12:      Singlet-A      9.0743 eV  136.63 nm  f=0.0144  <S**2>=0.000
      12 -> 15         0.52244
      13 -> 22        -0.46868

 Excited State  13:      Singlet-A      9.1121 eV  136.06 nm  f=0.0134  <S**2>=0.000
      12 -> 15         0.46924
      13 -> 22         0.49961

 Excited State  14:      Singlet-A      9.2885 eV  133.48 nm  f=0.0014  <S**2>=0.000
      13 -> 23         0.69876

 Excited State  15:      Singlet-A      9.4196 eV  131.62 nm  f=0.0810  <S**2>=0.000
      12 -> 16         0.65629
      13 -> 24         0.23231

 Excited State  16:      Singlet-A      9.4273 eV  131.52 nm  f=0.0120  <S**2>=0.000
      12 -> 16        -0.23945
      13 -> 24         0.65455

 Excited State  17:      Singlet-A      9.5731 eV  129.51 nm  f=0.0548  <S**2>=0.000
      11 -> 15         0.69881

 Excited State  18:      Singlet-A      9.7456 eV  127.22 nm  f=0.0109  <S**2>=0.000
      10 -> 15         0.69284

 Excited State  19:      Singlet-A      9.8277 eV  126.16 nm  f=0.0264  <S**2>=0.000
      11 -> 16         0.67560
      12 -> 17        -0.14917

 Excited State  20:      Singlet-A      9.9751 eV  124.29 nm  f=0.0043  <S**2>=0.000
      10 -> 16         0.63314
      11 -> 16         0.12941
      12 -> 17         0.25207

 Excited State  21:      Singlet-A     10.0360 eV  123.54 nm  f=0.0139  <S**2>=0.000
      12 -> 17         0.42542
      13 -> 25         0.51443
      13 -> 26        -0.14047

 Excited State  22:      Singlet-A     10.0653 eV  123.18 nm  f=0.0707  <S**2>=0.000
      10 -> 16        -0.26437
      11 -> 16         0.10736
      12 -> 17         0.46962
      13 -> 25        -0.40222
      13 -> 26         0.11059

 Excited State  23:      Singlet-A     10.3286 eV  120.04 nm  f=0.0044  <S**2>=0.000
       9 -> 14        -0.34372
      11 -> 17         0.17758
      12 -> 18         0.10468
      13 -> 26         0.51146
      13 -> 27        -0.25807

 Excited State  24:      Singlet-A     10.3907 eV  119.32 nm  f=0.0106  <S**2>=0.000
       9 -> 14         0.51972
      11 -> 17        -0.17199
      12 -> 18        -0.14501
      13 -> 26         0.27778
      13 -> 27        -0.29495

 Excited State  25:      Singlet-A     10.4431 eV  118.72 nm  f=0.0329  <S**2>=0.000
       9 -> 14         0.25374
      11 -> 17         0.28039
      12 -> 18         0.57807

 Excited State  26:      Singlet-A     10.4518 eV  118.62 nm  f=0.0427  <S**2>=0.000
       9 -> 14         0.18249
      11 -> 17         0.51713
      12 -> 18        -0.26560
      13 -> 26         0.13773
      13 -> 27         0.30721

 Excited State  27:      Singlet-A     10.5713 eV  117.28 nm  f=0.0385  <S**2>=0.000
      10 -> 17         0.69688

 Excited State  28:      Singlet-A     10.6341 eV  116.59 nm  f=0.0909  <S**2>=0.000
       8 -> 14        -0.11126
      11 -> 17        -0.28258
      12 -> 18         0.21667
      12 -> 19        -0.13477
      13 -> 25         0.15863
      13 -> 26         0.27720
      13 -> 27         0.45555

 Excited State  29:      Singlet-A     10.9158 eV  113.58 nm  f=0.0083  <S**2>=0.000
      11 -> 18         0.68254
      12 -> 19        -0.14239

 Excited State  30:      Singlet-A     10.9774 eV  112.94 nm  f=0.0251  <S**2>=0.000
      10 -> 18        -0.11711
      11 -> 18         0.14321
      12 -> 19         0.64724
      12 -> 20         0.11658

 Excited State  31:      Singlet-A     11.0833 eV  111.87 nm  f=0.0807  <S**2>=0.000
      10 -> 18         0.64635
      12 -> 19         0.14558
      12 -> 20        -0.17025

 Excited State  32:      Singlet-A     11.1313 eV  111.38 nm  f=0.0201  <S**2>=0.000
       9 -> 15         0.65838
      12 -> 20        -0.18072
      13 -> 28         0.15023

 Excited State  33:      Singlet-A     11.2355 eV  110.35 nm  f=0.0281  <S**2>=0.000
       9 -> 16         0.15327
      10 -> 18         0.14366
      12 -> 20         0.48219
      13 -> 28         0.43176

 Excited State  34:      Singlet-A     11.2901 eV  109.82 nm  f=0.0575  <S**2>=0.000
       8 -> 14        -0.24388
       9 -> 15        -0.20009
      11 -> 19         0.18817
      12 -> 20        -0.32306
      13 -> 28         0.47638

 Excited State  35:      Singlet-A     11.3889 eV  108.86 nm  f=0.0045  <S**2>=0.000
       9 -> 16        -0.25825
      11 -> 19         0.16294
      12 -> 21         0.61983

 Excited State  36:      Singlet-A     11.3954 eV  108.80 nm  f=0.0403  <S**2>=0.000
       8 -> 14         0.38311
       9 -> 16         0.28628
      11 -> 19         0.50009

 Excited State  37:      Singlet-A     11.4750 eV  108.05 nm  f=0.0439  <S**2>=0.000
       8 -> 14         0.42599
       9 -> 15        -0.11672
      10 -> 19        -0.12906
      11 -> 19        -0.37063
      12 -> 20        -0.19662
      12 -> 21         0.15761
      13 -> 28         0.17653

 Excited State  38:      Singlet-A     11.4951 eV  107.86 nm  f=0.0762  <S**2>=0.000
       8 -> 14        -0.23694
       9 -> 16         0.53926
      10 -> 19        -0.15497
      11 -> 19        -0.14470
      12 -> 21         0.22660

 Excited State  39:      Singlet-A     11.6029 eV  106.86 nm  f=0.0156  <S**2>=0.000
       9 -> 16        -0.10819
      10 -> 19        -0.26144
      11 -> 20         0.62978

 Excited State  40:      Singlet-A     11.6647 eV  106.29 nm  f=0.0380  <S**2>=0.000
      10 -> 19         0.50377
      10 -> 20        -0.16239
      11 -> 20         0.25727
      13 -> 29        -0.32131

 Excited State  41:      Singlet-A     11.6690 eV  106.25 nm  f=0.0880  <S**2>=0.000
       7 -> 14        -0.12637
      10 -> 19         0.25661
      10 -> 20        -0.10587
      11 -> 20         0.15335
      11 -> 21         0.11419
      13 -> 29         0.58016

 Excited State  42:      Singlet-A     11.8233 eV  104.86 nm  f=0.0663  <S**2>=0.000
       9 -> 17        -0.10299
      10 -> 19         0.13462
      10 -> 20         0.63826
      11 -> 21         0.11636
      12 -> 22        -0.11158

 Excited State  43:      Singlet-A     11.9124 eV  104.08 nm  f=0.0294  <S**2>=0.000
       9 -> 17         0.20547
      10 -> 21         0.27311
      11 -> 21         0.57801

 Excited State  44:      Singlet-A     12.0068 eV  103.26 nm  f=0.0067  <S**2>=0.000
       7 -> 14        -0.10204
       9 -> 17        -0.26485
      10 -> 21         0.21524
      12 -> 22         0.58560

 Excited State  45:      Singlet-A     12.0312 eV  103.05 nm  f=0.0221  <S**2>=0.000
       7 -> 14         0.18716
       9 -> 17        -0.35244
      10 -> 21         0.46285
      12 -> 22        -0.29077

 Excited State  46:      Singlet-A     12.0798 eV  102.64 nm  f=0.0741  <S**2>=0.000
       7 -> 14         0.57161
       9 -> 17        -0.17528
      10 -> 21        -0.25877
      12 -> 23         0.12706

 Excited State  47:      Singlet-A     12.1143 eV  102.35 nm  f=0.0412  <S**2>=0.000
       8 -> 15         0.67670

 Excited State  48:      Singlet-A     12.1352 eV  102.17 nm  f=0.0189  <S**2>=0.000
       7 -> 14         0.23804
       9 -> 17         0.41215
      10 -> 20         0.11155
      10 -> 21         0.23634
      11 -> 21        -0.24042
      12 -> 23         0.18022
      12 -> 24         0.10653
      13 -> 31        -0.10752

 Excited State  49:      Singlet-A     12.2563 eV  101.16 nm  f=0.0117  <S**2>=0.000
       9 -> 18        -0.10219
      12 -> 23        -0.32042
      12 -> 24         0.15022
      13 -> 30         0.57899

 Excited State  50:      Singlet-A     12.2982 eV  100.81 nm  f=0.0415  <S**2>=0.000
      12 -> 22        -0.11527
      12 -> 23         0.49999
      12 -> 24        -0.24445
      13 -> 30         0.33982

 Excited State  51:      Singlet-A     12.3729 eV  100.21 nm  f=0.0080  <S**2>=0.000
       8 -> 16         0.32000
       9 -> 18         0.19861
      11 -> 22        -0.16983
      12 -> 23         0.14504
      12 -> 24         0.51657
      13 -> 31         0.13241

 Excited State  52:      Singlet-A     12.3928 eV  100.05 nm  f=0.0200  <S**2>=0.000
       8 -> 16         0.32410
       9 -> 18        -0.21067
      12 -> 23        -0.10439
      12 -> 24        -0.17849
      13 -> 31         0.51067

 Excited State  53:      Singlet-A     12.4404 eV   99.66 nm  f=0.0366  <S**2>=0.000
       8 -> 16         0.35482
       9 -> 18         0.23269
      11 -> 22         0.49434
      13 -> 31        -0.20131

 Excited State  54:      Singlet-A     12.4702 eV   99.42 nm  f=0.0751  <S**2>=0.000
       8 -> 16         0.34370
       9 -> 18        -0.30359
      10 -> 22        -0.27777
      11 -> 22        -0.23957
      13 -> 31        -0.33863

 Excited State  55:      Singlet-A     12.5314 eV   98.94 nm  f=0.0471  <S**2>=0.000
       8 -> 16         0.10913
       9 -> 18         0.42823
      10 -> 22         0.10144
      11 -> 22        -0.31888
      11 -> 23         0.25332
      12 -> 24        -0.23383

 Excited State  56:      Singlet-A     12.6390 eV   98.10 nm  f=0.0758  <S**2>=0.000
       9 -> 18        -0.20267
      10 -> 22         0.59775
      12 -> 26         0.10155
      13 -> 31        -0.10516

 Excited State  57:      Singlet-A     12.7283 eV   97.41 nm  f=0.0025  <S**2>=0.000
       7 -> 15        -0.12088
       8 -> 17        -0.13675
      10 -> 23        -0.25146
      11 -> 23         0.57979

 Excited State  58:      Singlet-A     12.8080 eV   96.80 nm  f=0.0252  <S**2>=0.000
       7 -> 15        -0.34003
      10 -> 23         0.50242
      11 -> 24        -0.10462
      12 -> 25         0.27098

 Excited State  59:      Singlet-A     12.8307 eV   96.63 nm  f=0.0154  <S**2>=0.000
      10 -> 23        -0.11094
      11 -> 24         0.56438
      12 -> 25         0.35923

 Excited State  60:      Singlet-A     12.8719 eV   96.32 nm  f=0.0959  <S**2>=0.000
       7 -> 15         0.53957
       9 -> 19         0.19076
      10 -> 23         0.12971
      11 -> 23         0.13351
      12 -> 25         0.30862

 Excited State  61:      Singlet-A     12.9536 eV   95.71 nm  f=0.0328  <S**2>=0.000
       9 -> 19         0.44435
      10 -> 23         0.22562
      10 -> 24        -0.14468
      11 -> 24         0.23711
      11 -> 25        -0.10698
      12 -> 25        -0.35820

 Excited State  62:      Singlet-A     13.0244 eV   95.19 nm  f=0.0090  <S**2>=0.000
       7 -> 15         0.15178
       8 -> 17        -0.23269
       9 -> 19        -0.26607
      10 -> 23         0.19040
      10 -> 24         0.43038
      11 -> 24         0.22674
      11 -> 25        -0.11238
      12 -> 25        -0.18138

 Excited State  63:      Singlet-A     13.0537 eV   94.98 nm  f=0.0081  <S**2>=0.000
       7 -> 16        -0.19870
       8 -> 17         0.39544
       9 -> 19         0.19357
      10 -> 23        -0.11147
      10 -> 24         0.44507
      10 -> 25        -0.10307

 Excited State  64:      Singlet-A     13.0681 eV   94.88 nm  f=0.0095  <S**2>=0.000
       7 -> 16         0.54403
       8 -> 17         0.35816
       9 -> 19        -0.11453
      12 -> 26        -0.13690
      13 -> 32        -0.12521

 Excited State  65:      Singlet-A     13.1836 eV   94.04 nm  f=0.0112  <S**2>=0.000
       7 -> 16         0.28928
       8 -> 17        -0.18294
       9 -> 19         0.19618
       9 -> 20        -0.20559
      10 -> 24         0.12039
      11 -> 25         0.12931
      12 -> 26         0.35401
      12 -> 27         0.18240
      13 -> 33         0.10934
      13 -> 34        -0.17981

 Excited State  66:      Singlet-A     13.2299 eV   93.71 nm  f=0.0238  <S**2>=0.000
       7 -> 16         0.11503
      12 -> 26        -0.12813
      13 -> 32         0.58995
      13 -> 33         0.30634

 Excited State  67:      Singlet-A     13.2378 eV   93.66 nm  f=0.0080  <S**2>=0.000
       7 -> 16        -0.11537
      11 -> 25        -0.20076
      12 -> 26        -0.13892
      13 -> 32        -0.22498
      13 -> 33         0.49143
      13 -> 34        -0.34617

 Excited State  68:      Singlet-A     13.2667 eV   93.46 nm  f=0.0332  <S**2>=0.000
       8 -> 17         0.13081
       9 -> 19        -0.14738
       9 -> 20         0.37270
      11 -> 25         0.21695
      11 -> 26         0.10410
      12 -> 26         0.40382
      13 -> 33         0.21197

 Excited State  69:      Singlet-A     13.3285 eV   93.02 nm  f=0.0165  <S**2>=0.000
       8 -> 18         0.11272
       9 -> 20         0.10997
       9 -> 21         0.35710
      12 -> 26        -0.10984
      12 -> 27         0.15586
      13 -> 32        -0.18281
      13 -> 33         0.18923
      13 -> 34         0.44372

 Excited State  70:      Singlet-A     13.3502 eV   92.87 nm  f=0.0040  <S**2>=0.000
       7 -> 16         0.10249
       8 -> 18         0.40017
       9 -> 20         0.29734
       9 -> 21         0.10031
      12 -> 27        -0.36947
      13 -> 34        -0.17170

 Excited State  71:      Singlet-A     13.4118 eV   92.44 nm  f=0.0638  <S**2>=0.000
       9 -> 20         0.22131
       9 -> 21         0.21397
      10 -> 25         0.15762
      11 -> 25        -0.10667
      12 -> 27         0.43587
      13 -> 32         0.11639
      13 -> 33        -0.21672
      13 -> 34        -0.27684

 Excited State  72:      Singlet-A     13.4779 eV   91.99 nm  f=0.1139  <S**2>=0.000
       7 -> 17         0.14164
       9 -> 20        -0.21822
       9 -> 21         0.36561
      10 -> 25         0.31761
      11 -> 25         0.31508

 Excited State  73:      Singlet-A     13.5462 eV   91.53 nm  f=0.0163  <S**2>=0.000
       7 -> 17         0.11844
       8 -> 18         0.30163
       9 -> 21        -0.27792
      10 -> 25         0.46495
      11 -> 26        -0.12261

 Excited State  74:      Singlet-A     13.5729 eV   91.35 nm  f=0.0394  <S**2>=0.000
       7 -> 17         0.45644
       8 -> 18         0.33457
       9 -> 21         0.12244
      10 -> 25        -0.28819
      11 -> 27         0.10797

 Excited State  75:      Singlet-A     13.6140 eV   91.07 nm  f=0.1248  <S**2>=0.000
       9 -> 21        -0.21490
      10 -> 26         0.27259
      10 -> 27         0.11156
      11 -> 25         0.37154
      11 -> 27        -0.12215
      12 -> 26        -0.25967
      12 -> 27         0.21208

 Excited State  76:      Singlet-A     13.7765 eV   90.00 nm  f=0.0909  <S**2>=0.000
      10 -> 27         0.15287
      11 -> 26         0.52664
      11 -> 27         0.37030
      13 -> 35        -0.10705

 Excited State  77:      Singlet-A     13.8208 eV   89.71 nm  f=0.0094  <S**2>=0.000
      10 -> 26        -0.11652
      11 -> 26        -0.14915
      11 -> 27         0.41527
      13 -> 35         0.49548

 Excited State  78:      Singlet-A     13.8506 eV   89.52 nm  f=0.0393  <S**2>=0.000
       8 -> 19         0.16236
      10 -> 26        -0.28100
      11 -> 26         0.27671
      11 -> 27        -0.34681
      12 -> 28         0.12685
      13 -> 35         0.38976

 Excited State  79:      Singlet-A     13.8986 eV   89.21 nm  f=0.0390  <S**2>=0.000
      10 -> 26         0.53546
      11 -> 25        -0.16424
      12 -> 28         0.14410
      13 -> 35         0.25043

 Excited State  80:      Singlet-A     13.9519 eV   88.87 nm  f=0.0007  <S**2>=0.000
       7 -> 17        -0.27238
       7 -> 18        -0.21519
       8 -> 18         0.12530
       8 -> 19         0.42725
       9 -> 22         0.10046
      10 -> 27        -0.31108

 Excited State  81:      Singlet-A     14.0037 eV   88.54 nm  f=0.0166  <S**2>=0.000
       7 -> 17        -0.14237
       7 -> 18        -0.14945
       8 -> 19         0.19019
       8 -> 20         0.15812
       9 -> 22        -0.22885
      10 -> 27         0.51558
      12 -> 28        -0.12028

 Excited State  82:      Singlet-A     14.0280 eV   88.38 nm  f=0.0204  <S**2>=0.000
       7 -> 17         0.10193
       8 -> 19         0.13571
       9 -> 22         0.60797
      10 -> 27         0.21845

 Excited State  83:      Singlet-A     14.0824 eV   88.04 nm  f=0.0969  <S**2>=0.000
       7 -> 17         0.16144
       7 -> 18         0.36234
       8 -> 18        -0.12375
       8 -> 19         0.38405
       9 -> 22        -0.11450
       9 -> 23        -0.14653
      12 -> 28        -0.19686
      13 -> 36        -0.11038

 Excited State  84:      Singlet-A     14.1902 eV   87.37 nm  f=0.0351  <S**2>=0.000
       7 -> 18         0.24722
       8 -> 20         0.54731
      12 -> 28         0.20226
      13 -> 36         0.20456

 Excited State  85:      Singlet-A     14.2276 eV   87.14 nm  f=0.0645  <S**2>=0.000
       6 -> 14        -0.10887
       7 -> 18         0.12191
       8 -> 19        -0.10746
       8 -> 20         0.10958
       9 -> 23         0.41189
       9 -> 24        -0.13260
      11 -> 26         0.11057
      12 -> 28        -0.36328
      13 -> 36        -0.19875

 Excited State  86:      Singlet-A     14.2567 eV   86.97 nm  f=0.0102  <S**2>=0.000
       9 -> 23         0.17548
      12 -> 28        -0.23825
      13 -> 36         0.57313
      13 -> 37         0.13682

 Excited State  87:      Singlet-A     14.3385 eV   86.47 nm  f=0.0358  <S**2>=0.000
       7 -> 17        -0.14362
       7 -> 18         0.31515
       8 -> 20        -0.24369
      13 -> 37         0.42562
      13 -> 38         0.10719

 Excited State  88:      Singlet-A     14.3819 eV   86.21 nm  f=0.0736  <S**2>=0.000
       6 -> 14         0.13954
       8 -> 20        -0.10795
       8 -> 21         0.20124
       9 -> 23         0.35687
       9 -> 24        -0.16138
      11 -> 28        -0.34549
      12 -> 28         0.22155
      13 -> 37        -0.10299
      13 -> 38         0.16403

 Excited State  89:      Singlet-A     14.4189 eV   85.99 nm  f=0.0141  <S**2>=0.000
       7 -> 18        -0.10951
       9 -> 24         0.18086
      11 -> 28         0.11267
      12 -> 29         0.14705
      13 -> 37         0.12967
      13 -> 38         0.59609

 Excited State  90:      Singlet-A     14.4328 eV   85.90 nm  f=0.0603  <S**2>=0.000
       7 -> 19        -0.10324
       9 -> 23         0.15783
       9 -> 24         0.56275
      11 -> 28        -0.19901
      12 -> 29         0.12451
      13 -> 37         0.14928
      13 -> 38        -0.19963

 Excited State  91:      Singlet-A     14.4586 eV   85.75 nm  f=0.0022  <S**2>=0.000
       7 -> 18         0.11130
       7 -> 19        -0.12541
       8 -> 20        -0.10397
       8 -> 21        -0.31488
      12 -> 29         0.44400
      13 -> 37        -0.32164

 Excited State  92:      Singlet-A     14.5077 eV   85.46 nm  f=0.1086  <S**2>=0.000
       8 -> 21         0.50963
       9 -> 23        -0.13050
       9 -> 24         0.13797
      10 -> 28         0.15802
      11 -> 28         0.11086
      12 -> 28        -0.12783
      13 -> 36         0.10991
      13 -> 37        -0.24723

 Excited State  93:      Singlet-A     14.5255 eV   85.36 nm  f=0.0344  <S**2>=0.000
       6 -> 14         0.22363
       9 -> 24        -0.11333
      11 -> 28         0.33081
      12 -> 29         0.41144
      13 -> 37         0.19342
      13 -> 38        -0.21104

 Excited State  94:      Singlet-A     14.6342 eV   84.72 nm  f=0.0440  <S**2>=0.000
       6 -> 14        -0.20665
       7 -> 19         0.40050
      11 -> 28        -0.25019
      12 -> 29         0.22692
      13 -> 39         0.31258

 Excited State  95:      Singlet-A     14.7181 eV   84.24 nm  f=0.0174  <S**2>=0.000
       6 -> 14         0.16971
       9 -> 25        -0.14897

 The electronic state is 1-A.
 Alpha  occ. eigenvalues --  -14.00069  -9.94267  -9.91072  -0.78974  -0.64935
 Alpha  occ. eigenvalues --   -0.53285  -0.43700  -0.41213  -0.37604  -0.32318
 Alpha  occ. eigenvalues --   -0.31784  -0.30102  -0.19382
 Alpha virt. eigenvalues --    0.00231   0.03102   0.04188   0.06388   0.08065
 Alpha virt. eigenvalues --    0.10000   0.10815   0.11578   0.13819   0.14658
 Alpha virt. eigenvalues --    0.15193   0.17010   0.18387   0.18882   0.21428

 Mulliken charges:
               1
     1  C    0.731603
     2  C    0.374267
     3  N    0.005122
     4  H   -0.155002
     5  H   -0.149487
     6  H   -0.103849
     7  H   -0.250519
     8  H   -0.304048
     9  H   -0.033979
    10  H   -0.114108
 Sum of Mulliken charges =  -0.00000

 Dipole moment (field-independent basis, Debye):
    X=              0.1557    Y=              0.5890    Z=              1.0689  Tot=              1.2303
 Quadrupole moment (field-independent basis, Debye-Ang):
   XX=            -20.1014   YY=            -21.3067   ZZ=            -21.9424
   XY=              0.7163   XZ=              1.5331   YZ=             -1.6963

 Normal termination of Gaussian 16 at Mon Mar 21 20:10:12 2022.
