 Gaussian 16, Revision C.01,
 Gaussian 16:  EM64L-G16RevC.01  3-Jul-2019

 --------------------------------------------------------------------
 #P TD(Nstates=10000) blyp/Gen SCF(maxcycles=100) Int(Grid=ultrafine)
 --------------------------------------------------------------------

 ---------------------
 xGDB7_00001_tier4.com
 ---------------------
 Symbolic Z-matrix:
 Charge =  0 Multiplicity = 1

                         Standard orientation:
 ---------------------------------------------------------------------
 Center     Atomic      Atomic             Coordinates (Angstroms)
 Number     Number       Type             X           Y           Z
 ---------------------------------------------------------------------
      1          9           0        0.000000    0.000000    0.091801
      2          1           0        0.000000    0.000000   -0.826212
 ---------------------------------------------------------------------

 SCF Done:  E(RB-LYP) =  -100.366040563     A.U. after    9 cycles

 Excitation energies and oscillator strengths:

 Excited state symmetry could not be determined.
 Excited State   1:      Singlet-?Sym    9.3122 eV  133.14 nm  f=0.0320  <S**2>=0.000
       4 ->  6         0.16912
       5 ->  6         0.68616
 This state for optimization and/or second-order correction.
 Total Energy, E(TD-HF/TD-DFT) =  -100.023823457
 Copying the excited state density for this state as the 1-particle RhoCI density.

 Excited state symmetry could not be determined.
 Excited State   2:      Singlet-?Sym    9.3122 eV  133.14 nm  f=0.0320  <S**2>=0.000
       4 ->  6         0.68616
       5 ->  6        -0.16912

 Excited state symmetry could not be determined.
 Excited State   3:      Singlet-?Sym   13.2471 eV   93.59 nm  f=0.0000  <S**2>=0.000
       4 ->  9        -0.50000
       5 ->  8         0.50000

 Excited State   4:      Singlet-SG    13.2605 eV   93.50 nm  f=0.1291  <S**2>=0.000
       3 ->  6         0.64160
       4 ->  8         0.20416
       5 ->  9         0.20416

 Excited state symmetry could not be determined.
 Excited State   5:      Singlet-?Sym   13.2618 eV   93.49 nm  f=0.0193  <S**2>=0.000
       4 ->  7         0.33299
       5 ->  7         0.62270

 Excited state symmetry could not be determined.
 Excited State   6:      Singlet-?Sym   13.2618 eV   93.49 nm  f=0.0193  <S**2>=0.000
       4 ->  7         0.62270
       5 ->  7        -0.33299

 Excited state symmetry could not be determined.
 Excited State   7:      Singlet-?Sym   13.2655 eV   93.46 nm  f=0.0000  <S**2>=0.000
       4 ->  9         0.49993
       5 ->  8         0.49993

 Excited state symmetry could not be determined.
 Excited State   8:      Singlet-?Sym   13.2655 eV   93.46 nm  f=0.0000  <S**2>=0.000
       4 ->  8        -0.49993
       5 ->  9         0.49993

 Excited state symmetry could not be determined.
 Excited State   9:      Singlet-?Sym   14.8791 eV   83.33 nm  f=0.0066  <S**2>=0.000
       3 ->  6        -0.24405
       3 ->  7        -0.19355
       3 -> 10         0.10134
       4 ->  8         0.40989
       4 -> 11        -0.16140
       5 ->  9         0.40989
       5 -> 12        -0.16140

 Excited state symmetry could not be determined.
 Excited State  10:      Singlet-?Sym   15.1529 eV   81.82 nm  f=0.0768  <S**2>=0.000
       4 -> 10        -0.27724
       5 -> 10         0.64922

 Excited state symmetry could not be determined.
 Excited State  11:      Singlet-?Sym   15.1529 eV   81.82 nm  f=0.0768  <S**2>=0.000
       4 -> 10         0.64922
       5 -> 10         0.27724

 Excited state symmetry could not be determined.
 Excited State  12:      Singlet-?Sym   15.7984 eV   78.48 nm  f=0.0000  <S**2>=0.000
       4 -> 11        -0.49994
       5 -> 12         0.49994

 Excited state symmetry could not be determined.
 Excited State  13:      Singlet-?Sym   15.7984 eV   78.48 nm  f=0.0000  <S**2>=0.000
       4 -> 12         0.49994
       5 -> 11         0.49994

 Excited state symmetry could not be determined.
 Excited State  14:      Singlet-?Sym   15.9179 eV   77.89 nm  f=0.0000  <S**2>=0.000
       4 -> 12        -0.50000
       5 -> 11         0.50000

 Excited state symmetry could not be determined.
 Excited State  15:      Singlet-?Sym   16.1048 eV   76.99 nm  f=0.2084  <S**2>=0.000
       3 ->  6        -0.10542
       3 ->  7        -0.11976
       3 -> 10         0.12827
       4 ->  8         0.10454
       4 -> 11         0.46561
       5 ->  9         0.10454
       5 -> 12         0.46561

 Excited state symmetry could not be determined.
 Excited State  16:      Singlet-?Sym   17.0558 eV   72.69 nm  f=0.0000  <S**2>=0.000
       3 ->  8         0.17515
       3 ->  9         0.68471

 Excited state symmetry could not be determined.
 Excited State  17:      Singlet-?Sym   17.0558 eV   72.69 nm  f=0.0000  <S**2>=0.000
       3 ->  8         0.68471
       3 ->  9        -0.17515

 Excited State  18:      Singlet-SG    17.5493 eV   70.65 nm  f=0.0459  <S**2>=0.000
       3 ->  7         0.65039
       3 -> 10         0.20672
       4 ->  8         0.11933
       5 ->  9         0.11933

 Excited state symmetry could not be determined.
 Excited State  19:      Singlet-?Sym   18.4044 eV   67.37 nm  f=0.0124  <S**2>=0.000
       4 -> 13         0.58906
       5 -> 13        -0.38821

 Excited state symmetry could not be determined.
 Excited State  20:      Singlet-?Sym   18.4044 eV   67.37 nm  f=0.0124  <S**2>=0.000
       4 -> 13         0.38821
       5 -> 13         0.58906

 Excited state symmetry could not be determined.
 Excited State  21:      Singlet-?Sym   19.6702 eV   63.03 nm  f=0.0751  <S**2>=0.000
       3 -> 11         0.51262
       3 -> 12        -0.48240

 Excited state symmetry could not be determined.
 Excited State  22:      Singlet-?Sym   19.6702 eV   63.03 nm  f=0.0751  <S**2>=0.000
       3 -> 11         0.48240
       3 -> 12         0.51262

 Excited State  23:      Singlet-SG    19.8731 eV   62.39 nm  f=0.1025  <S**2>=0.000
       3 ->  7        -0.13989
       3 -> 10         0.61833
       3 -> 13        -0.25177

 Excited State  24:      Singlet-SG    22.9256 eV   54.08 nm  f=0.0704  <S**2>=0.000
       3 -> 10         0.19904
       3 -> 13         0.64909

 Excited state symmetry could not be determined.
 Excited State  25:      Singlet-?Sym   23.9060 eV   51.86 nm  f=0.0000  <S**2>=0.000
       4 -> 14        -0.15294
       4 -> 15        -0.47604
       5 -> 14         0.47604
       5 -> 15        -0.15294

 Excited state symmetry could not be determined.
 Excited State  26:      Singlet-?Sym   23.9060 eV   51.86 nm  f=0.0000  <S**2>=0.000
       4 -> 14         0.47604
       4 -> 15        -0.15294
       5 -> 14         0.15294
       5 -> 15         0.47604

 Excited state symmetry could not be determined.
 Excited State  27:      Singlet-?Sym   25.0341 eV   49.53 nm  f=0.4074  <S**2>=0.000
       4 -> 14         0.37600
       4 -> 15         0.28407
       4 -> 16        -0.13508
       5 -> 14         0.28407
       5 -> 15        -0.37600
       5 -> 16        -0.17880

 Excited state symmetry could not be determined.
 Excited State  28:      Singlet-?Sym   25.0341 eV   49.53 nm  f=0.4074  <S**2>=0.000
       4 -> 14        -0.28407
       4 -> 15         0.37600
       4 -> 16        -0.17880
       5 -> 14         0.37600
       5 -> 15         0.28407
       5 -> 16         0.13508

 Excited state symmetry could not be determined.
 Excited State  29:      Singlet-?Sym   26.5357 eV   46.72 nm  f=0.1962  <S**2>=0.000
       4 -> 14         0.14414
       4 -> 16         0.22028
       5 -> 15        -0.14414
       5 -> 16         0.63109

 Excited state symmetry could not be determined.
 Excited State  30:      Singlet-?Sym   26.5357 eV   46.72 nm  f=0.1962  <S**2>=0.000
       4 -> 15         0.14414
       4 -> 16         0.63109
       5 -> 14         0.14414
       5 -> 16        -0.22028

 Excited state symmetry could not be determined.
 Excited State  31:      Singlet-?Sym   27.8414 eV   44.53 nm  f=0.0000  <S**2>=0.000
       3 -> 14         0.70274

 Excited state symmetry could not be determined.
 Excited State  32:      Singlet-?Sym   27.8414 eV   44.53 nm  f=0.0000  <S**2>=0.000
       3 -> 15         0.70274

 Excited state symmetry could not be determined.
 Excited State  33:      Singlet-?Sym   28.5009 eV   43.50 nm  f=0.0000  <S**2>=0.000
       4 -> 18        -0.49692
       5 -> 17         0.49692

 Excited state symmetry could not be determined.
 Excited State  34:      Singlet-?Sym   28.5009 eV   43.50 nm  f=0.0000  <S**2>=0.000
       4 -> 17         0.49692
       5 -> 18         0.49692

 Excited state symmetry could not be determined.
 Excited State  35:      Singlet-?Sym   28.6339 eV   43.30 nm  f=0.0000  <S**2>=0.000
       4 -> 17         0.50000
       5 -> 18        -0.50000

 Excited state symmetry could not be determined.
 Excited State  36:      Singlet-?Sym   29.0939 eV   42.62 nm  f=0.1448  <S**2>=0.000
       2 ->  6         0.16515
       3 -> 16         0.34212
       4 -> 18         0.41983
       5 -> 17         0.41983

 Excited State  37:      Singlet-SG    29.8291 eV   41.56 nm  f=0.0512  <S**2>=0.000
       2 ->  6         0.66083
       3 -> 16        -0.19375

 Excited State  38:      Singlet-SG    31.7605 eV   39.04 nm  f=0.5617  <S**2>=0.000
       2 ->  6         0.13074
       2 ->  7         0.10636
       3 -> 16         0.57682
       4 -> 18        -0.25415
       5 -> 17        -0.25415

 Excited state symmetry could not be determined.
 Excited State  39:      Singlet-?Sym   32.8153 eV   37.78 nm  f=0.2747  <S**2>=0.000
       2 ->  9        -0.29005
       3 -> 17         0.63993

 Excited state symmetry could not be determined.
 Excited State  40:      Singlet-?Sym   32.8153 eV   37.78 nm  f=0.2747  <S**2>=0.000
       2 ->  8        -0.29005
       3 -> 18         0.63993

 Excited State  41:      Singlet-SG    33.2470 eV   37.29 nm  f=0.0135  <S**2>=0.000
       2 ->  7         0.69455

 Excited state symmetry could not be determined.
 Excited State  42:      Singlet-?Sym   33.5237 eV   36.98 nm  f=0.0253  <S**2>=0.000
       2 ->  9         0.64290
       3 -> 17         0.28416

 Excited state symmetry could not be determined.
 Excited State  43:      Singlet-?Sym   33.5237 eV   36.98 nm  f=0.0253  <S**2>=0.000
       2 ->  8         0.64290
       3 -> 18         0.28416

 Excited State  44:      Singlet-SG    35.1957 eV   35.23 nm  f=0.0097  <S**2>=0.000
       2 -> 10         0.70021

 Excited state symmetry could not be determined.
 Excited State  45:      Singlet-?Sym   35.7627 eV   34.67 nm  f=0.0035  <S**2>=0.000
       2 -> 11         0.60966
       2 -> 12        -0.35758

 Excited state symmetry could not be determined.
 Excited State  46:      Singlet-?Sym   35.7627 eV   34.67 nm  f=0.0035  <S**2>=0.000
       2 -> 11         0.35758
       2 -> 12         0.60966

 Excited state symmetry could not be determined.
 Excited State  47:      Singlet-?Sym   36.4612 eV   34.00 nm  f=0.0053  <S**2>=0.000
       4 -> 19         0.61403
       5 -> 19        -0.34976

 Excited state symmetry could not be determined.
 Excited State  48:      Singlet-?Sym   36.4612 eV   34.00 nm  f=0.0053  <S**2>=0.000
       4 -> 19         0.34976
       5 -> 19         0.61403

 Excited State  49:      Singlet-SG    38.7897 eV   31.96 nm  f=0.0264  <S**2>=0.000
       2 -> 13         0.67717
       3 -> 19         0.15003

 Excited State  50:      Singlet-SG    40.8417 eV   30.36 nm  f=0.0012  <S**2>=0.000
       2 -> 13        -0.11567
       3 -> 19         0.66493
       4 -> 21        -0.13688
       5 -> 20        -0.13688

 Excited state symmetry could not be determined.
 Excited State  51:      Singlet-?Sym   44.0828 eV   28.13 nm  f=0.0000  <S**2>=0.000
       2 -> 14         0.61698
       4 -> 20        -0.24426
       5 -> 21        -0.24426

 Excited state symmetry could not be determined.
 Excited State  52:      Singlet-?Sym   44.0828 eV   28.13 nm  f=0.0000  <S**2>=0.000
       2 -> 15         0.61698
       4 -> 21        -0.24426
       5 -> 20         0.24426

 Excited state symmetry could not be determined.
 Excited State  53:      Singlet-?Sym   44.0960 eV   28.12 nm  f=0.0000  <S**2>=0.000
       4 -> 20         0.50000
       5 -> 21        -0.50000

 Excited state symmetry could not be determined.
 Excited State  54:      Singlet-?Sym   44.1755 eV   28.07 nm  f=0.0000  <S**2>=0.000
       2 -> 14         0.34540
       4 -> 20         0.43627
       5 -> 21         0.43627

 Excited state symmetry could not be determined.
 Excited State  55:      Singlet-?Sym   44.1755 eV   28.07 nm  f=0.0000  <S**2>=0.000
       2 -> 15        -0.34539
       4 -> 21        -0.43627
       5 -> 20         0.43627

 Excited State  56:      Singlet-SG    46.4451 eV   26.69 nm  f=0.0006  <S**2>=0.000
       2 -> 16         0.69939

 Excited state symmetry could not be determined.
 Excited State  57:      Singlet-?Sym   47.9632 eV   25.85 nm  f=0.0001  <S**2>=0.000
       3 -> 20         0.66315
       3 -> 21        -0.22268

 Excited state symmetry could not be determined.
 Excited State  58:      Singlet-?Sym   47.9632 eV   25.85 nm  f=0.0001  <S**2>=0.000
       3 -> 20         0.22268
       3 -> 21         0.66315

 Excited state symmetry could not be determined.
 Excited State  59:      Singlet-?Sym   48.7201 eV   25.45 nm  f=0.0044  <S**2>=0.000
       2 -> 17         0.68788
       2 -> 18         0.14971

 Excited state symmetry could not be determined.
 Excited State  60:      Singlet-?Sym   48.7201 eV   25.45 nm  f=0.0044  <S**2>=0.000
       2 -> 17        -0.14971
       2 -> 18         0.68788

 Excited state symmetry could not be determined.
 Excited State  61:      Singlet-?Sym   49.6897 eV   24.95 nm  f=0.0396  <S**2>=0.000
       4 -> 22         0.17246
       5 -> 22         0.67799

 Excited state symmetry could not be determined.
 Excited State  62:      Singlet-?Sym   49.6897 eV   24.95 nm  f=0.0396  <S**2>=0.000
       4 -> 22         0.67799
       5 -> 22        -0.17246

 Excited State  63:      Singlet-SG    50.3549 eV   24.62 nm  f=0.0734  <S**2>=0.000
       2 -> 19         0.11201
       3 -> 19        -0.11298
       3 -> 22         0.44805
       4 -> 21        -0.35112
       5 -> 20        -0.35112

 Excited State  64:      Singlet-SG    56.5949 eV   21.91 nm  f=0.0418  <S**2>=0.000
       2 -> 19         0.59894
       3 -> 22        -0.31649

 Excited state symmetry could not be determined.
 Excited State  65:      Singlet-?Sym   57.9848 eV   21.38 nm  f=0.0000  <S**2>=0.000
       4 -> 24        -0.49999
       5 -> 23         0.49999

 Excited state symmetry could not be determined.
 Excited State  66:      Singlet-?Sym   57.9848 eV   21.38 nm  f=0.0000  <S**2>=0.000
       4 -> 23         0.49999
       5 -> 24         0.49999

 Excited State  67:      Singlet-SG    58.1211 eV   21.33 nm  f=0.0764  <S**2>=0.000
       2 -> 19         0.33595
       2 -> 22         0.13504
       3 -> 22         0.30574
       4 -> 21         0.18838
       4 -> 24         0.29817
       5 -> 20         0.18838
       5 -> 23         0.29817

 Excited state symmetry could not be determined.
 Excited State  68:      Singlet-?Sym   58.2009 eV   21.30 nm  f=0.0000  <S**2>=0.000
       4 -> 23         0.50000
       5 -> 24        -0.50000

 Excited state symmetry could not be determined.
 Excited State  69:      Singlet-?Sym   59.5162 eV   20.83 nm  f=0.0450  <S**2>=0.000
       2 -> 19        -0.10222
       2 -> 22        -0.15231
       3 -> 22        -0.28352
       3 -> 25         0.18389
       4 -> 21        -0.16221
       4 -> 24         0.38012
       5 -> 20        -0.16221
       5 -> 23         0.38012

 Excited state symmetry could not be determined.
 Excited State  70:      Singlet-?Sym   61.0204 eV   20.32 nm  f=0.0013  <S**2>=0.000
       3 -> 23        -0.29660
       4 -> 25         0.19267
       5 -> 25         0.60049

 Excited state symmetry could not be determined.
 Excited State  71:      Singlet-?Sym   61.0204 eV   20.32 nm  f=0.0013  <S**2>=0.000
       3 -> 24        -0.29660
       4 -> 25         0.60049
       5 -> 25        -0.19267

 Excited state symmetry could not be determined.
 Excited State  72:      Singlet-?Sym   62.2546 eV   19.92 nm  f=0.1292  <S**2>=0.000
       3 -> 23         0.63159
       5 -> 25         0.30253

 Excited state symmetry could not be determined.
 Excited State  73:      Singlet-?Sym   62.2546 eV   19.92 nm  f=0.1292  <S**2>=0.000
       3 -> 24         0.63159
       4 -> 25         0.30253

 Excited state symmetry could not be determined.
 Excited State  74:      Singlet-?Sym   64.8962 eV   19.10 nm  f=0.2465  <S**2>=0.000
       2 -> 20         0.62252
       2 -> 21         0.31221

 Excited state symmetry could not be determined.
 Excited State  75:      Singlet-?Sym   64.8962 eV   19.10 nm  f=0.2465  <S**2>=0.000
       2 -> 20        -0.31221
       2 -> 21         0.62252

 Excited State  76:      Singlet-SG    65.5105 eV   18.93 nm  f=0.0166  <S**2>=0.000
       2 -> 22         0.18491
       3 -> 25         0.66353

 Excited State  77:      Singlet-SG    71.9011 eV   17.24 nm  f=0.0853  <S**2>=0.000
       2 -> 22         0.62477
       2 -> 25         0.16314
       3 -> 22        -0.12242
       3 -> 25        -0.12572
       3 -> 26        -0.13713
       4 -> 21        -0.11332
       5 -> 20        -0.11332

 Excited state symmetry could not be determined.
 Excited State  78:      Singlet-?Sym   72.0637 eV   17.20 nm  f=0.0194  <S**2>=0.000
       4 -> 26        -0.33197
       5 -> 26         0.62195

 Excited state symmetry could not be determined.
 Excited State  79:      Singlet-?Sym   72.0637 eV   17.20 nm  f=0.0194  <S**2>=0.000
       4 -> 26         0.62195
       5 -> 26         0.33197

 Excited State  80:      Singlet-SG    76.9883 eV   16.10 nm  f=0.0159  <S**2>=0.000
       2 -> 25         0.11445
       3 -> 26         0.68115

 Excited state symmetry could not be determined.
 Excited State  81:      Singlet-?Sym   78.1702 eV   15.86 nm  f=0.0024  <S**2>=0.000
       2 -> 23         0.64064
       2 -> 24        -0.29852

 Excited state symmetry could not be determined.
 Excited State  82:      Singlet-?Sym   78.1702 eV   15.86 nm  f=0.0024  <S**2>=0.000
       2 -> 23         0.29852
       2 -> 24         0.64064

 Excited State  83:      Singlet-SG    83.8170 eV   14.79 nm  f=0.0351  <S**2>=0.000
       2 -> 22        -0.12530
       2 -> 25         0.66958

 Excited State  84:      Singlet-SG    92.9125 eV   13.34 nm  f=0.0217  <S**2>=0.000
       2 -> 26         0.70265

 Excited state symmetry could not be determined.
 Excited State  85:      Singlet-?Sym   96.7439 eV   12.82 nm  f=0.0000  <S**2>=0.000
       4 -> 27         0.50000
       5 -> 28        -0.50000

 Excited state symmetry could not be determined.
 Excited State  86:      Singlet-?Sym   96.7439 eV   12.82 nm  f=0.0000  <S**2>=0.000
       4 -> 28         0.50000
       5 -> 27         0.50000

 Excited state symmetry could not be determined.
 Excited State  87:      Singlet-?Sym  100.8180 eV   12.30 nm  f=0.0000  <S**2>=0.000
       3 -> 27         0.69154
       4 -> 29         0.10311
       5 -> 30        -0.10311

 Excited state symmetry could not be determined.
 Excited State  88:      Singlet-?Sym  100.8180 eV   12.30 nm  f=0.0000  <S**2>=0.000
       3 -> 28         0.69154
       4 -> 30         0.10311
       5 -> 29         0.10311

 Excited state symmetry could not be determined.
 Excited State  89:      Singlet-?Sym  101.3079 eV   12.24 nm  f=0.2488  <S**2>=0.000
       3 -> 29        -0.36651
       4 -> 27         0.41497
       5 -> 28         0.41497

 Excited state symmetry could not be determined.
 Excited State  90:      Singlet-?Sym  101.3079 eV   12.24 nm  f=0.2488  <S**2>=0.000
       3 -> 30         0.36651
       4 -> 28        -0.41497
       5 -> 27         0.41497

 Excited state symmetry could not be determined.
 Excited State  91:      Singlet-?Sym  101.5562 eV   12.21 nm  f=0.0000  <S**2>=0.000
       3 -> 28        -0.14572
       4 -> 30         0.48925
       5 -> 29         0.48925

 Excited state symmetry could not be determined.
 Excited State  92:      Singlet-?Sym  101.5562 eV   12.21 nm  f=0.0000  <S**2>=0.000
       3 -> 27        -0.14572
       4 -> 29         0.48925
       5 -> 30        -0.48925

 Excited state symmetry could not be determined.
 Excited State  93:      Singlet-?Sym  101.7827 eV   12.18 nm  f=0.0000  <S**2>=0.000
       4 -> 30        -0.50000
       5 -> 29         0.50000

 Excited state symmetry could not be determined.
 Excited State  94:      Singlet-?Sym  107.5988 eV   11.52 nm  f=0.5549  <S**2>=0.000
       3 -> 31        -0.10443
       4 -> 29         0.49095
       5 -> 30         0.49095

 Excited state symmetry could not be determined.
 Excited State  95:      Singlet-?Sym  110.0618 eV   11.26 nm  f=0.6541  <S**2>=0.000
       3 -> 29         0.59385
       4 -> 27         0.25721
       5 -> 28         0.25721

 Excited state symmetry could not be determined.
 Excited State  96:      Singlet-?Sym  110.0618 eV   11.26 nm  f=0.6541  <S**2>=0.000
       3 -> 30         0.59385
       4 -> 28         0.25721
       5 -> 27        -0.25721

 Excited state symmetry could not be determined.
 Excited State  97:      Singlet-?Sym  118.5291 eV   10.46 nm  f=0.0000  <S**2>=0.000
       2 -> 27         0.70672

 Excited state symmetry could not be determined.
 Excited State  98:      Singlet-?Sym  118.5291 eV   10.46 nm  f=0.0000  <S**2>=0.000
       2 -> 28         0.70672

 Excited state symmetry could not be determined.
 Excited State  99:      Singlet-?Sym  123.1581 eV   10.07 nm  f=0.0104  <S**2>=0.000
       2 -> 29         0.55931
       2 -> 30         0.43026

 Excited state symmetry could not be determined.
 Excited State 100:      Singlet-?Sym  123.1581 eV   10.07 nm  f=0.0104  <S**2>=0.000
       2 -> 29        -0.43026
       2 -> 30         0.55931

 Excited state symmetry could not be determined.
 Excited State 101:      Singlet-?Sym  127.3370 eV    9.74 nm  f=0.1187  <S**2>=0.000
       4 -> 31         0.14691
       5 -> 31         0.68340

 Excited state symmetry could not be determined.
 Excited State 102:      Singlet-?Sym  127.3370 eV    9.74 nm  f=0.1187  <S**2>=0.000
       4 -> 31         0.68340
       5 -> 31        -0.14691

 Excited State 103:      Singlet-SG   132.5227 eV    9.36 nm  f=0.2403  <S**2>=0.000
       3 -> 31         0.69872

 Excited State 104:      Singlet-SG   147.0900 eV    8.43 nm  f=0.0001  <S**2>=0.000
       2 -> 31         0.70678

 The electronic state is 1-SG.
 Alpha  occ. eigenvalues --  -24.30668  -1.08414  -0.49426  -0.35627  -0.35627
 Alpha virt. eigenvalues --   -0.02075   0.12898   0.13055   0.13055   0.19826
 Alpha virt. eigenvalues --    0.22870   0.22870   0.31403   0.53083   0.53083
 Alpha virt. eigenvalues --    0.60758   0.69601   0.69601   0.98448   1.26423

 Mulliken charges:
               1
     1  F   -0.211589
     2  H    0.211589
 Sum of Mulliken charges =   0.00000

 Dipole moment (field-independent basis, Debye):
    X=              0.0000    Y=              0.0000    Z=             -1.7736  Tot=              1.7736
 Quadrupole moment (field-independent basis, Debye-Ang):
   XX=             -6.0243   YY=             -6.0243   ZZ=             -3.9507
   XY=              0.0000   XZ=              0.0000   YZ=              0.0000

 Normal termination of Gaussian 16 at Mon Mar 21 20:06:23 2022.
