 Gaussian 16, Revision C.01,
 Gaussian 16:  EM64L-G16RevC.01  3-Jul-2019

 --------------------------------------------------------------------
 #P TD(Nstates=10000) blyp/Gen SCF(maxcycles=100) Int(Grid=ultrafine)
 --------------------------------------------------------------------

 ---------------------
 xGDB7_00001_tier4.com
 ---------------------
 Symbolic Z-matrix:
 Charge =  0 Multiplicity = 1

                         Standard orientation:
 ---------------------------------------------------------------------
 Center     Atomic      Atomic             Coordinates (Angstroms)
 Number     Number       Type             X           Y           Z
 ---------------------------------------------------------------------
      1          7           0        1.078471   -0.156900   -0.000001
      2          6           0       -0.161963    0.384944   -0.000002
      3          8           0       -1.189170   -0.245458    0.000001
      4          1           0        1.898427    0.419427    0.000004
      5          1           0        1.178124   -1.157073    0.000005
      6          1           0       -0.140706    1.489948    0.000007
 ---------------------------------------------------------------------

 SCF Done:  E(RB-LYP) =  -169.744568293     A.U. after   14 cycles

 Excitation energies and oscillator strengths:

 Excited State   1:      Singlet-A      5.4789 eV  226.29 nm  f=0.0006  <S**2>=0.000
      12 -> 13         0.70661
 This state for optimization and/or second-order correction.
 Total Energy, E(TD-HF/TD-DFT) =  -169.543220711
 Copying the excited state density for this state as the 1-particle RhoCI density.

 Excited State   2:      Singlet-A      5.9320 eV  209.01 nm  f=0.0223  <S**2>=0.000
      11 -> 13         0.16998
      12 -> 14         0.68485

 Excited State   3:      Singlet-A      6.6373 eV  186.80 nm  f=0.0101  <S**2>=0.000
      11 -> 14         0.70509

 Excited State   4:      Singlet-A      6.6836 eV  185.51 nm  f=0.0776  <S**2>=0.000
      12 -> 15         0.70343

 Excited State   5:      Singlet-A      7.3942 eV  167.68 nm  f=0.0030  <S**2>=0.000
      11 -> 15         0.70554

 Excited State   6:      Singlet-A      7.6039 eV  163.05 nm  f=0.2990  <S**2>=0.000
      11 -> 13         0.64942
      11 -> 18        -0.10425
      12 -> 14        -0.15523
      12 -> 17        -0.10340

 Excited State   7:      Singlet-A      7.6758 eV  161.53 nm  f=0.0307  <S**2>=0.000
      12 -> 16         0.70194

 Excited State   8:      Singlet-A      8.4023 eV  147.56 nm  f=0.0041  <S**2>=0.000
      11 -> 16         0.70550

 Excited State   9:      Singlet-A      8.5231 eV  145.47 nm  f=0.0346  <S**2>=0.000
      12 -> 17         0.68990

 Excited State  10:      Singlet-A      8.5556 eV  144.92 nm  f=0.0112  <S**2>=0.000
      12 -> 18         0.70548

 Excited State  11:      Singlet-A      8.9483 eV  138.56 nm  f=0.0065  <S**2>=0.000
      11 -> 18        -0.10771
      12 -> 19         0.68911

 Excited State  12:      Singlet-A      9.1346 eV  135.73 nm  f=0.0021  <S**2>=0.000
      11 -> 17         0.70364

 Excited State  13:      Singlet-A      9.3862 eV  132.09 nm  f=0.0042  <S**2>=0.000
      11 -> 18         0.34007
      12 -> 20         0.61440

 Excited State  14:      Singlet-A      9.4850 eV  130.72 nm  f=0.0156  <S**2>=0.000
      11 -> 18         0.59454
      12 -> 20        -0.34865

 Excited State  15:      Singlet-A      9.6272 eV  128.79 nm  f=0.0037  <S**2>=0.000
      10 -> 13        -0.39706
      11 -> 19         0.58111

 Excited State  16:      Singlet-A      9.6810 eV  128.07 nm  f=0.0006  <S**2>=0.000
      10 -> 13         0.56588
      11 -> 19         0.40175

 Excited State  17:      Singlet-A      9.8431 eV  125.96 nm  f=0.0123  <S**2>=0.000
      10 -> 14         0.70311

 Excited State  18:      Singlet-A      9.9128 eV  125.08 nm  f=0.0354  <S**2>=0.000
       9 -> 14         0.70399

 Excited State  19:      Singlet-A     10.0747 eV  123.07 nm  f=0.0000  <S**2>=0.000
      11 -> 20        -0.14935
      12 -> 21         0.68623

 Excited State  20:      Singlet-A     10.2155 eV  121.37 nm  f=0.0206  <S**2>=0.000
      11 -> 20         0.68275
      12 -> 21         0.13978

 Excited State  21:      Singlet-A     10.3788 eV  119.46 nm  f=0.0057  <S**2>=0.000
       9 -> 13         0.11967
      12 -> 22         0.68903

 Excited State  22:      Singlet-A     10.5424 eV  117.61 nm  f=0.0436  <S**2>=0.000
       9 -> 13        -0.26747
      10 -> 15        -0.29193
      12 -> 22         0.11891
      12 -> 23         0.56629

 Excited State  23:      Singlet-A     10.6804 eV  116.09 nm  f=0.0611  <S**2>=0.000
      10 -> 15         0.60801
      11 -> 21         0.14655
      12 -> 23         0.31487

 Excited State  24:      Singlet-A     10.6965 eV  115.91 nm  f=0.0010  <S**2>=0.000
       9 -> 15         0.70024

 Excited State  25:      Singlet-A     10.7345 eV  115.50 nm  f=0.0271  <S**2>=0.000
       8 -> 14         0.10262
       9 -> 13         0.44681
      10 -> 15        -0.18740
      11 -> 21         0.46470
      12 -> 23         0.14252

 Excited State  26:      Singlet-A     10.8796 eV  113.96 nm  f=0.0042  <S**2>=0.000
      12 -> 24         0.70207

 Excited State  27:      Singlet-A     11.1530 eV  111.17 nm  f=0.0072  <S**2>=0.000
      11 -> 22         0.70265

 Excited State  28:      Singlet-A     11.1945 eV  110.75 nm  f=0.0876  <S**2>=0.000
       8 -> 14        -0.19226
       9 -> 13        -0.36031
      10 -> 16        -0.18547
      11 -> 21         0.47502
      12 -> 23        -0.19050
      12 -> 27         0.10513

 Excited State  29:      Singlet-A     11.3034 eV  109.69 nm  f=0.0009  <S**2>=0.000
      11 -> 23         0.70269

 Excited State  30:      Singlet-A     11.4593 eV  108.20 nm  f=0.0028  <S**2>=0.000
       8 -> 13         0.69256

 Excited State  31:      Singlet-A     11.7331 eV  105.67 nm  f=0.0415  <S**2>=0.000
       9 -> 16         0.70121

 Excited State  32:      Singlet-A     11.7723 eV  105.32 nm  f=0.0035  <S**2>=0.000
       8 -> 14        -0.28364
      10 -> 16         0.57542
      11 -> 24        -0.25233

 Excited State  33:      Singlet-A     11.8411 eV  104.71 nm  f=0.0248  <S**2>=0.000
       8 -> 14         0.54071
       9 -> 13        -0.18319
      10 -> 16         0.30835
      11 -> 21         0.11672
      11 -> 24         0.17517
      12 -> 27         0.10857

 Excited State  34:      Singlet-A     11.9587 eV  103.68 nm  f=0.0301  <S**2>=0.000
       8 -> 14        -0.25978
       9 -> 18         0.13972
      10 -> 16         0.13602
      11 -> 24         0.59259

 Excited State  35:      Singlet-A     12.4260 eV   99.78 nm  f=0.0893  <S**2>=0.000
      10 -> 17         0.58653
      12 -> 25         0.36377
      12 -> 27        -0.10591

 Excited State  36:      Singlet-A     12.4472 eV   99.61 nm  f=0.0305  <S**2>=0.000
       8 -> 15        -0.10662
      10 -> 17        -0.37904
      12 -> 25         0.57762

 Excited State  37:      Singlet-A     12.5035 eV   99.16 nm  f=0.0007  <S**2>=0.000
       9 -> 17         0.53169
      10 -> 18         0.36702
      12 -> 26         0.28014

 Excited State  38:      Singlet-A     12.5694 eV   98.64 nm  f=0.0000  <S**2>=0.000
      10 -> 18        -0.38960
      12 -> 26         0.58803

 Excited State  39:      Singlet-A     12.6054 eV   98.36 nm  f=0.0556  <S**2>=0.000
       9 -> 17        -0.44635
      10 -> 18         0.45974
      12 -> 26         0.27139

 Excited State  40:      Singlet-A     12.6634 eV   97.91 nm  f=0.1525  <S**2>=0.000
       8 -> 15         0.66969
      12 -> 25         0.14451

 Excited State  41:      Singlet-A     12.8521 eV   96.47 nm  f=0.0121  <S**2>=0.000
       9 -> 18         0.63626
      10 -> 19        -0.15903
      10 -> 20        -0.13098

 Excited State  42:      Singlet-A     12.9148 eV   96.00 nm  f=0.0458  <S**2>=0.000
       9 -> 18         0.14722
      10 -> 19         0.68022

 Excited State  43:      Singlet-A     12.9614 eV   95.66 nm  f=0.0001  <S**2>=0.000
       9 -> 19         0.70650

 Excited State  44:      Singlet-A     13.2264 eV   93.74 nm  f=0.0399  <S**2>=0.000
       7 -> 13        -0.15266
       9 -> 20         0.23080
      11 -> 25         0.64222

 Excited State  45:      Singlet-A     13.2662 eV   93.46 nm  f=0.1726  <S**2>=0.000
       8 -> 16         0.21315
      10 -> 20        -0.18230
      11 -> 26         0.28225
      12 -> 27         0.54881

 Excited State  46:      Singlet-A     13.3505 eV   92.87 nm  f=0.0002  <S**2>=0.000
       7 -> 13         0.68426
       9 -> 20         0.10874
      11 -> 25         0.12000

 Excited State  47:      Singlet-A     13.4004 eV   92.52 nm  f=0.0365  <S**2>=0.000
       8 -> 16        -0.19906
      10 -> 20         0.32659
      11 -> 26         0.57549
      12 -> 27        -0.10012

 Excited State  48:      Singlet-A     13.5120 eV   91.76 nm  f=0.0356  <S**2>=0.000
       8 -> 16         0.39934
       9 -> 18         0.11155
      10 -> 20         0.52009
      11 -> 26        -0.15359

 Excited State  49:      Singlet-A     13.5848 eV   91.27 nm  f=0.1088  <S**2>=0.000
       6 -> 13        -0.11635
       9 -> 20         0.61590
      11 -> 25        -0.19468
      11 -> 27         0.24113

 Excited State  50:      Singlet-A     13.6753 eV   90.66 nm  f=0.0327  <S**2>=0.000
       7 -> 14        -0.10557
       8 -> 16         0.46922
       9 -> 21        -0.10208
      10 -> 20        -0.23226
      11 -> 26         0.20478
      12 -> 27        -0.28607
      12 -> 28         0.18715

 Excited State  51:      Singlet-A     13.7654 eV   90.07 nm  f=0.0486  <S**2>=0.000
       9 -> 20        -0.18655
      11 -> 25         0.13448
      11 -> 27         0.65588

 Excited State  52:      Singlet-A     14.0097 eV   88.50 nm  f=0.0571  <S**2>=0.000
       7 -> 14         0.60613
       8 -> 17         0.11831
       9 -> 21        -0.28432

 Excited State  53:      Singlet-A     14.0831 eV   88.04 nm  f=0.0145  <S**2>=0.000
      10 -> 21         0.70458

 Excited State  54:      Singlet-A     14.1710 eV   87.49 nm  f=0.0787  <S**2>=0.000
       7 -> 14         0.19351
       9 -> 21         0.39889
      10 -> 22         0.14642
      12 -> 28         0.51457

 Excited State  55:      Singlet-A     14.3403 eV   86.46 nm  f=0.0315  <S**2>=0.000
       7 -> 14         0.11437
       8 -> 17         0.22491
       9 -> 21         0.42290
      10 -> 22        -0.21471
      10 -> 23        -0.11270
      12 -> 28        -0.32152
      12 -> 29         0.24747

 Excited State  56:      Singlet-A     14.3805 eV   86.22 nm  f=0.0044  <S**2>=0.000
       7 -> 14        -0.13061
       7 -> 15        -0.21167
       8 -> 17         0.59293
       8 -> 19         0.11415
      10 -> 22         0.18547

 Excited State  57:      Singlet-A     14.4111 eV   86.03 nm  f=0.0093  <S**2>=0.000
       8 -> 18         0.70396

 Excited State  58:      Singlet-A     14.4659 eV   85.71 nm  f=0.0109  <S**2>=0.000
       8 -> 17        -0.14308
       8 -> 19         0.11137
      10 -> 22         0.56569
      10 -> 23        -0.20408
      12 -> 28        -0.13043
      12 -> 29         0.24140

 Excited State  59:      Singlet-A     14.4679 eV   85.70 nm  f=0.0017  <S**2>=0.000
       9 -> 22         0.70364

 Excited State  60:      Singlet-A     14.5072 eV   85.46 nm  f=0.0008  <S**2>=0.000
      10 -> 23         0.51224
      12 -> 29         0.46371

 Excited State  61:      Singlet-A     14.6043 eV   84.90 nm  f=0.0001  <S**2>=0.000
       9 -> 23         0.69708

 Excited State  62:      Singlet-A     14.6058 eV   84.89 nm  f=0.0037  <S**2>=0.000
       7 -> 15         0.39666
       8 -> 19         0.26661
      10 -> 22         0.15366
      10 -> 23         0.36525
      12 -> 28        -0.12784
      12 -> 29        -0.26201

 Excited State  63:      Singlet-A     14.7151 eV   84.26 nm  f=0.0176  <S**2>=0.000
       7 -> 15         0.41859
       8 -> 19         0.21533
       9 -> 21        -0.16280
      10 -> 22        -0.12525
      10 -> 23        -0.19797
      12 -> 28         0.15539
      12 -> 29         0.29075
      12 -> 30         0.12967
      12 -> 32        -0.12295

 Excited State  64:      Singlet-A     14.8784 eV   83.33 nm  f=0.0000  <S**2>=0.000
      10 -> 24         0.69302
      12 -> 31        -0.10423

 Excited State  65:      Singlet-A     14.9225 eV   83.09 nm  f=0.0134  <S**2>=0.000
       7 -> 15         0.15605
       8 -> 19        -0.40923
       9 -> 24        -0.20123
      12 -> 30         0.46670

 Excited State  66:      Singlet-A     14.9812 eV   82.76 nm  f=0.0048  <S**2>=0.000
       6 -> 15         0.10917
       7 -> 15        -0.23436
       7 -> 16         0.14027
       8 -> 17        -0.13659
       8 -> 19         0.35325
       8 -> 20         0.14199
      12 -> 30         0.43916
      12 -> 32        -0.15317

 Excited State  67:      Singlet-A     15.0019 eV   82.65 nm  f=0.0005  <S**2>=0.000
       6 -> 13        -0.12144
      11 -> 28        -0.43655
      12 -> 31         0.53359

 Excited State  68:      Singlet-A     15.0609 eV   82.32 nm  f=0.0578  <S**2>=0.000
      11 -> 28         0.53676
      12 -> 31         0.42484

 Excited State  69:      Singlet-A     15.1150 eV   82.03 nm  f=0.0226  <S**2>=0.000
       6 -> 14         0.13192
       8 -> 19        -0.12607
       9 -> 24         0.62480
      12 -> 30         0.16451
      12 -> 32        -0.11346

 Excited State  70:      Singlet-A     15.1921 eV   81.61 nm  f=0.0460  <S**2>=0.000
       8 -> 19         0.11431
       9 -> 24         0.11899
      12 -> 30         0.10699
      12 -> 32         0.64172

 Excited State  71:      Singlet-A     15.3015 eV   81.03 nm  f=0.0008  <S**2>=0.000
      11 -> 29         0.70169

 Excited State  72:      Singlet-A     15.3211 eV   80.92 nm  f=0.0133  <S**2>=0.000
       6 -> 14        -0.16844
       8 -> 20         0.65427
      12 -> 30        -0.11835

 Excited State  73:      Singlet-A     15.4637 eV   80.18 nm  f=0.0234  <S**2>=0.000
       6 -> 14         0.61026
       7 -> 16        -0.28200
       8 -> 20         0.11752
      11 -> 31         0.12752

 Excited State  74:      Singlet-A     15.6293 eV   79.33 nm  f=0.1107  <S**2>=0.000
       6 -> 13         0.56617
      11 -> 30         0.31828
      12 -> 31         0.10347

 Excited State  75:      Singlet-A     15.6750 eV   79.10 nm  f=0.0662  <S**2>=0.000
       6 -> 13        -0.27744
      11 -> 30         0.62889

 Excited State  76:      Singlet-A     15.7051 eV   78.95 nm  f=0.0680  <S**2>=0.000
       7 -> 16         0.30830
      11 -> 31         0.35111
      12 -> 33         0.50665

 Excited State  77:      Singlet-A     15.8686 eV   78.13 nm  f=0.0620  <S**2>=0.000
       8 -> 22         0.10561
      11 -> 31         0.52953
      12 -> 33        -0.41751

 Excited State  78:      Singlet-A     15.9035 eV   77.96 nm  f=0.0014  <S**2>=0.000
       8 -> 21        -0.10358
      11 -> 32         0.69768

 Excited State  79:      Singlet-A     15.9198 eV   77.88 nm  f=0.0011  <S**2>=0.000
       8 -> 21         0.69769
      11 -> 32         0.10257

 Excited State  80:      Singlet-A     16.0274 eV   77.36 nm  f=0.0252  <S**2>=0.000
       6 -> 14         0.19856
       6 -> 15        -0.27688
       7 -> 16         0.43179
       7 -> 17         0.16697
       8 -> 22        -0.11715
       9 -> 24        -0.10278
      11 -> 31        -0.20383
      12 -> 33        -0.20314
      12 -> 34        -0.10729

 Excited State  81:      Singlet-A     16.3459 eV   75.85 nm  f=0.0771  <S**2>=0.000
       6 -> 15        -0.13348
       7 -> 17        -0.12032
       8 -> 22         0.60465
       8 -> 23        -0.20727
      10 -> 25         0.15200

 Excited State  82:      Singlet-A     16.3608 eV   75.78 nm  f=0.0037  <S**2>=0.000
       6 -> 15         0.34849
       7 -> 17         0.48022
       8 -> 22         0.15472
       8 -> 23        -0.19169
      10 -> 25        -0.25502

 Excited State  83:      Singlet-A     16.4109 eV   75.55 nm  f=0.0016  <S**2>=0.000
       7 -> 17         0.21997
       8 -> 22        -0.13175
       8 -> 23        -0.22115
      10 -> 25         0.58697
      12 -> 34         0.12711

 Excited State  84:      Singlet-A     16.4680 eV   75.29 nm  f=0.0001  <S**2>=0.000
      11 -> 33         0.70073

 Excited State  85:      Singlet-A     16.5365 eV   74.98 nm  f=0.0103  <S**2>=0.000
       7 -> 18         0.68533
      10 -> 26         0.10366

 Excited State  86:      Singlet-A     16.5424 eV   74.95 nm  f=0.0014  <S**2>=0.000
       9 -> 25         0.65448
      10 -> 26        -0.22115

 Excited State  87:      Singlet-A     16.5901 eV   74.73 nm  f=0.0681  <S**2>=0.000
       7 -> 17         0.12906
       7 -> 19        -0.12599
       8 -> 22         0.13626
       8 -> 23         0.51380
       9 -> 26         0.14715
      10 -> 25         0.21793
      10 -> 27         0.10711
      12 -> 34        -0.26382

 Excited State  88:      Singlet-A     16.6314 eV   74.55 nm  f=0.0130  <S**2>=0.000
       8 -> 24         0.18019
       9 -> 25         0.19902
      10 -> 26         0.62798

 Excited State  89:      Singlet-A     16.6887 eV   74.29 nm  f=0.2260  <S**2>=0.000
       6 -> 15        -0.33694
       7 -> 16        -0.16638
       7 -> 17         0.35338
       8 -> 23         0.18075
       9 -> 26        -0.29086
      12 -> 34         0.22498

 Excited State  90:      Singlet-A     16.7267 eV   74.12 nm  f=0.0163  <S**2>=0.000
       8 -> 24         0.67481
      10 -> 26        -0.17211

 Excited State  91:      Singlet-A     16.7462 eV   74.04 nm  f=0.0418  <S**2>=0.000
       6 -> 15        -0.14656
       7 -> 19        -0.23794
       9 -> 26         0.54512
      12 -> 34         0.29754

 Excited State  92:      Singlet-A     16.9067 eV   73.33 nm  f=0.0061  <S**2>=0.000
       6 -> 15         0.18957
       7 -> 16         0.10159
       7 -> 17        -0.12774
       7 -> 19        -0.19789
       9 -> 26        -0.13784
      10 -> 27         0.46071
      12 -> 34         0.34720

 Excited State  93:      Singlet-A     17.0273 eV   72.81 nm  f=0.0397  <S**2>=0.000
       6 -> 16        -0.10990
       7 -> 19         0.58775
       7 -> 20        -0.10209
       9 -> 26         0.18021
      10 -> 27         0.20644
      12 -> 34         0.12860

 Excited State  94:      Singlet-A     17.1039 eV   72.49 nm  f=0.0547  <S**2>=0.000
       9 -> 27         0.68281

 Excited State  95:      Singlet-A     17.2101 eV   72.04 nm  f=0.0120  <S**2>=0.000
       6 -> 16         0.67830

 Excited State  96:      Singlet-A     17.2649 eV   71.81 nm  f=0.1039  <S**2>=0.000
       6 -> 15        -0.15429
       7 -> 20         0.31477
       8 -> 22        -0.11965
       8 -> 23        -0.13501
       8 -> 25        -0.11293
       9 -> 26         0.10841
      10 -> 27         0.42380
      12 -> 34        -0.24922

 Excited State  97:      Singlet-A     17.4940 eV   70.87 nm  f=0.0572  <S**2>=0.000
       7 -> 20         0.59973
       7 -> 22        -0.10797
       8 -> 23         0.10293
       8 -> 25         0.10630
      10 -> 27        -0.15830
      12 -> 34         0.12151

 Excited State  98:      Singlet-A     17.5235 eV   70.75 nm  f=0.0115  <S**2>=0.000
      11 -> 34         0.69690

 Excited State  99:      Singlet-A     17.5591 eV   70.61 nm  f=0.0066  <S**2>=0.000
      12 -> 35         0.70267

 Excited State 100:      Singlet-A     17.6679 eV   70.18 nm  f=0.0206  <S**2>=0.000
      12 -> 36         0.69030

 Excited State 101:      Singlet-A     18.0378 eV   68.74 nm  f=0.0530  <S**2>=0.000
       6 -> 17         0.64208
       8 -> 27        -0.13939
      10 -> 28        -0.15988

 Excited State 102:      Singlet-A     18.0846 eV   68.56 nm  f=0.0077  <S**2>=0.000
       6 -> 18         0.66138
       7 -> 21         0.23899

 Excited State 103:      Singlet-A     18.1048 eV   68.48 nm  f=0.0700  <S**2>=0.000
       6 -> 18        -0.23549
       7 -> 21         0.64269

 Excited State 104:      Singlet-A     18.2049 eV   68.10 nm  f=0.0021  <S**2>=0.000
       6 -> 17         0.10366
       7 -> 22        -0.10824
      10 -> 28         0.65860
      11 -> 35         0.14014
      12 -> 37        -0.10925

 Excited State 105:      Singlet-A     18.2815 eV   67.82 nm  f=0.0009  <S**2>=0.000
       9 -> 28         0.69412

 Excited State 106:      Singlet-A     18.3383 eV   67.61 nm  f=0.0048  <S**2>=0.000
       7 -> 22         0.17528
       8 -> 25         0.18432
      11 -> 35         0.57932
      12 -> 37         0.27327

 Excited State 107:      Singlet-A     18.4281 eV   67.28 nm  f=0.0009  <S**2>=0.000
       6 -> 19         0.50252
       7 -> 22        -0.19881
       8 -> 25        -0.38872
      10 -> 29        -0.11892

 Excited State 108:      Singlet-A     18.4326 eV   67.26 nm  f=0.0283  <S**2>=0.000
       8 -> 26        -0.38657
      11 -> 36         0.58916

 Excited State 109:      Singlet-A     18.4648 eV   67.15 nm  f=0.0942  <S**2>=0.000
       6 -> 19         0.38344
       7 -> 22        -0.11938
       7 -> 23        -0.18797
       8 -> 25         0.41955
      10 -> 29         0.23253
      11 -> 35        -0.19324

 Excited State 110:      Singlet-A     18.4902 eV   67.05 nm  f=0.0709  <S**2>=0.000
       8 -> 26         0.57895
      11 -> 36         0.38041

 Excited State 111:      Singlet-A     18.5863 eV   66.71 nm  f=0.0210  <S**2>=0.000
       8 -> 25        -0.22879
      10 -> 29         0.62813

 Excited State 112:      Singlet-A     18.6134 eV   66.61 nm  f=0.0343  <S**2>=0.000
       7 -> 22        -0.25550
       7 -> 23         0.54673
      10 -> 30         0.13349
      12 -> 37         0.29159

 Excited State 113:      Singlet-A     18.6201 eV   66.59 nm  f=0.0004  <S**2>=0.000
       9 -> 29         0.69688

 Excited State 114:      Singlet-A     18.6394 eV   66.52 nm  f=0.0710  <S**2>=0.000
       6 -> 19         0.27391
       6 -> 20         0.11328
       7 -> 22         0.49515
       7 -> 23         0.29153
      12 -> 37        -0.14221

 Excited State 115:      Singlet-A     18.7727 eV   66.04 nm  f=0.0550  <S**2>=0.000
       7 -> 22         0.15966
       7 -> 23        -0.19134
       8 -> 25        -0.15596
       8 -> 27        -0.10491
       9 -> 31         0.16244
      10 -> 30         0.41132
      11 -> 35        -0.15436
      12 -> 37         0.36154

 Excited State 116:      Singlet-A     18.8532 eV   65.76 nm  f=0.0213  <S**2>=0.000
       7 -> 24         0.69329

 Excited State 117:      Singlet-A     18.9496 eV   65.43 nm  f=0.0178  <S**2>=0.000
       6 -> 20         0.57604
       8 -> 27        -0.30653
       9 -> 31         0.17814

 Excited State 118:      Singlet-A     19.0112 eV   65.22 nm  f=0.0010  <S**2>=0.000

 The electronic state is 1-A.
 Alpha  occ. eigenvalues --  -18.76916 -14.06009 -10.02795  -0.94485  -0.82812
 Alpha  occ. eigenvalues --   -0.56876  -0.51204  -0.43436  -0.36926  -0.36638
 Alpha  occ. eigenvalues --   -0.24778  -0.22006
 Alpha virt. eigenvalues --   -0.02520  -0.00683   0.02301   0.06042   0.08713
 Alpha virt. eigenvalues --    0.09532   0.10735   0.12574   0.15052   0.16223
 Alpha virt. eigenvalues --    0.16721   0.18020   0.23562   0.24400   0.25542

 Mulliken charges:
               1
     1  N    0.482582
     2  C    0.554083
     3  O   -0.280025
     4  H   -0.208022
     5  H   -0.165628
     6  H   -0.382989
 Sum of Mulliken charges =  -0.00000

 Dipole moment (field-independent basis, Debye):
    X=              3.8138    Y=              0.7805    Z=              0.0000  Tot=              3.8928
 Quadrupole moment (field-independent basis, Debye-Ang):
   XX=            -18.4611   YY=            -16.0882   ZZ=            -19.0311
   XY=             -1.3342   XZ=              0.0000   YZ=             -0.0000

 Normal termination of Gaussian 16 at Mon Mar 21 20:07:27 2022.
