 Gaussian 16, Revision C.01,
 Gaussian 16:  EM64L-G16RevC.01  3-Jul-2019

 --------------------------------------------------------------------
 #P TD(Nstates=10000) blyp/Gen SCF(maxcycles=100) Int(Grid=ultrafine)
 --------------------------------------------------------------------

 ---------------------
 xGDB7_00001_tier4.com
 ---------------------
 Symbolic Z-matrix:
 Charge =  0 Multiplicity = 1

                         Standard orientation:
 ---------------------------------------------------------------------
 Center     Atomic      Atomic             Coordinates (Angstroms)
 Number     Number       Type             X           Y           Z
 ---------------------------------------------------------------------
      1          6           0        0.000000    0.729549   -0.367364
      2          6           0       -0.000000   -0.729549   -0.367364
      3          8           0       -0.000000   -0.000000    0.845033
      4          1           0       -0.918945    1.264243   -0.587975
      5          1           0        0.918945    1.264243   -0.587975
      6          1           0        0.918945   -1.264243   -0.587975
      7          1           0       -0.918945   -1.264243   -0.587975
 ---------------------------------------------------------------------

 SCF Done:  E(RB-LYP) =  -153.629027643     A.U. after   12 cycles

 Excitation energies and oscillator strengths:

 Excited State   1:      Singlet-B1     6.5122 eV  190.39 nm  f=0.0255  <S**2>=0.000
      12 -> 13         0.70530
 This state for optimization and/or second-order correction.
 Total Energy, E(TD-HF/TD-DFT) =  -153.389707809
 Copying the excited state density for this state as the 1-particle RhoCI density.

 Excited State   2:      Singlet-A2     7.0298 eV  176.37 nm  f=0.0000  <S**2>=0.000
      12 -> 14         0.70677

 Excited State   3:      Singlet-B1     7.2698 eV  170.55 nm  f=0.0091  <S**2>=0.000
      12 -> 15         0.70447

 Excited State   4:      Singlet-A1     7.6109 eV  162.90 nm  f=0.0382  <S**2>=0.000
      12 -> 16         0.70213

 Excited State   5:      Singlet-A2     7.8685 eV  157.57 nm  f=0.0000  <S**2>=0.000
      12 -> 17         0.70659

 Excited State   6:      Singlet-A1     7.9315 eV  156.32 nm  f=0.0034  <S**2>=0.000
      11 -> 13         0.69899

 Excited State   7:      Singlet-B2     8.4918 eV  146.01 nm  f=0.0417  <S**2>=0.000
      11 -> 14         0.69510
      11 -> 17         0.12280

 Excited State   8:      Singlet-A1     8.6454 eV  143.41 nm  f=0.0545  <S**2>=0.000
      11 -> 15         0.69638

 Excited State   9:      Singlet-B1     8.7730 eV  141.33 nm  f=0.0122  <S**2>=0.000
      11 -> 16        -0.17553
      12 -> 18         0.68402

 Excited State  10:      Singlet-B1     8.9657 eV  138.29 nm  f=0.0071  <S**2>=0.000
      11 -> 16         0.68415
      12 -> 18         0.17418

 Excited State  11:      Singlet-B2     9.3944 eV  131.98 nm  f=0.0508  <S**2>=0.000
      12 -> 19         0.70478

 Excited State  12:      Singlet-A2     9.6112 eV  129.00 nm  f=0.0000  <S**2>=0.000
      10 -> 13         0.70564

 Excited State  13:      Singlet-B2     9.8515 eV  125.85 nm  f=0.1114  <S**2>=0.000
       9 -> 15        -0.15622
      11 -> 14        -0.10446
      11 -> 17         0.64832
      11 -> 21         0.15612

 Excited State  14:      Singlet-B1     9.8629 eV  125.71 nm  f=0.0024  <S**2>=0.000
      12 -> 20         0.70625

 Excited State  15:      Singlet-A2     9.9358 eV  124.79 nm  f=0.0000  <S**2>=0.000
      12 -> 21         0.70594

 Excited State  16:      Singlet-B2    10.0961 eV  122.80 nm  f=0.0144  <S**2>=0.000
       9 -> 13         0.70054

 Excited State  17:      Singlet-A1    10.1458 eV  122.20 nm  f=0.0055  <S**2>=0.000
      11 -> 18         0.69299
      12 -> 22         0.12249

 Excited State  18:      Singlet-B1    10.1937 eV  121.63 nm  f=0.0770  <S**2>=0.000
      10 -> 14         0.70504

 Excited State  19:      Singlet-A2    10.2352 eV  121.14 nm  f=0.0000  <S**2>=0.000
      10 -> 15         0.70410

 Excited State  20:      Singlet-A1    10.4897 eV  118.20 nm  f=0.0000  <S**2>=0.000
       9 -> 17         0.18706
      11 -> 18        -0.11636
      11 -> 20         0.14156
      12 -> 22         0.64458

 Excited State  21:      Singlet-A2    10.6818 eV  116.07 nm  f=0.0000  <S**2>=0.000
      11 -> 19         0.15506
      12 -> 23         0.68584

 Excited State  22:      Singlet-A1    10.6889 eV  115.99 nm  f=0.0172  <S**2>=0.000
       9 -> 14         0.69727

 Excited State  23:      Singlet-A2    10.7533 eV  115.30 nm  f=0.0000  <S**2>=0.000
      11 -> 19         0.68896
      12 -> 23        -0.15371

 Excited State  24:      Singlet-B2    10.7937 eV  114.87 nm  f=0.1180  <S**2>=0.000
      10 -> 16         0.68692
      11 -> 21        -0.11597

 Excited State  25:      Singlet-B1    10.9364 eV  113.37 nm  f=0.0036  <S**2>=0.000
      10 -> 17         0.70494

 Excited State  26:      Singlet-B2    10.9415 eV  113.32 nm  f=0.0739  <S**2>=0.000
       9 -> 15         0.66713
      11 -> 21         0.18883

 Excited State  27:      Singlet-A1    11.0022 eV  112.69 nm  f=0.0058  <S**2>=0.000
      11 -> 20         0.10202
      12 -> 24         0.69246

 Excited State  28:      Singlet-A2    11.1356 eV  111.34 nm  f=0.0000  <S**2>=0.000
       9 -> 16         0.70531

 Excited State  29:      Singlet-A1    11.3796 eV  108.95 nm  f=0.0037  <S**2>=0.000
       9 -> 17        -0.26093
      10 -> 19         0.10293
      11 -> 20         0.63288

 Excited State  30:      Singlet-B2    11.5941 eV  106.94 nm  f=0.0526  <S**2>=0.000
       9 -> 15        -0.14013
      11 -> 17        -0.15932
      11 -> 21         0.63509
      11 -> 23        -0.13662

 Excited State  31:      Singlet-B1    11.5946 eV  106.93 nm  f=0.0001  <S**2>=0.000
      11 -> 22         0.70254

 Excited State  32:      Singlet-B1    11.7445 eV  105.57 nm  f=0.0037  <S**2>=0.000
      12 -> 25         0.69058

 Excited State  33:      Singlet-A2    11.9217 eV  104.00 nm  f=0.0000  <S**2>=0.000
      10 -> 18         0.70229

 Excited State  34:      Singlet-B2    12.0660 eV  102.75 nm  f=0.0206  <S**2>=0.000
      11 -> 21         0.10080
      11 -> 23         0.68847

 Excited State  35:      Singlet-A1    12.1278 eV  102.23 nm  f=0.0023  <S**2>=0.000
       8 -> 13         0.58794
       9 -> 17         0.32506

 Excited State  36:      Singlet-B2    12.3598 eV  100.31 nm  f=0.0052  <S**2>=0.000
       9 -> 18         0.70337

 Excited State  37:      Singlet-A1    12.3931 eV  100.04 nm  f=0.0047  <S**2>=0.000
       8 -> 13        -0.27416
       8 -> 15        -0.21823
       9 -> 17         0.37711
      10 -> 19         0.41018
      11 -> 20         0.11607
      11 -> 27         0.11570
      12 -> 22        -0.11580

 Excited State  38:      Singlet-B1    12.4022 eV   99.97 nm  f=0.0188  <S**2>=0.000
      11 -> 24         0.69045

 Excited State  39:      Singlet-B2    12.6065 eV   98.35 nm  f=0.0219  <S**2>=0.000
      12 -> 26         0.69228

 Excited State  40:      Singlet-B2    12.7481 eV   97.26 nm  f=0.1675  <S**2>=0.000
       8 -> 14         0.69463

 Excited State  41:      Singlet-B1    12.8808 eV   96.25 nm  f=0.0157  <S**2>=0.000
       7 -> 13         0.52652
      12 -> 27        -0.46101

 Excited State  42:      Singlet-A1    12.8821 eV   96.25 nm  f=0.0186  <S**2>=0.000
       7 -> 16        -0.19224
       8 -> 13         0.22611
       8 -> 15         0.16370
       9 -> 17        -0.18599
       9 -> 21         0.10049
      10 -> 19         0.50229
      11 -> 20        -0.14902
      11 -> 25        -0.14312
      12 -> 22         0.11644

 Excited State  43:      Singlet-A2    12.9025 eV   96.09 nm  f=0.0000  <S**2>=0.000
      10 -> 20         0.70617

 Excited State  44:      Singlet-B1    12.9192 eV   95.97 nm  f=0.0056  <S**2>=0.000
       7 -> 13         0.30793
       9 -> 19         0.48254
      12 -> 27         0.39870

 Excited State  45:      Singlet-B1    13.0053 eV   95.33 nm  f=0.0587  <S**2>=0.000
       7 -> 13        -0.31335
       8 -> 16         0.20200
       9 -> 19         0.49794
      10 -> 21        -0.10373
      12 -> 27        -0.30446

 Excited State  46:      Singlet-A1    13.0134 eV   95.27 nm  f=0.0954  <S**2>=0.000
       8 -> 15         0.60119
       9 -> 17         0.18033
       9 -> 21         0.12798
      11 -> 25         0.14394
      11 -> 27         0.15023
      12 -> 29        -0.15261

 Excited State  47:      Singlet-B1    13.0237 eV   95.20 nm  f=0.0027  <S**2>=0.000
      10 -> 21         0.69741

 Excited State  48:      Singlet-A1    13.1986 eV   93.94 nm  f=0.1115  <S**2>=0.000
       8 -> 15        -0.12317
      10 -> 19         0.12692
      11 -> 25         0.65658

 Excited State  49:      Singlet-B1    13.2567 eV   93.53 nm  f=0.0916  <S**2>=0.000
       7 -> 13         0.11248
       8 -> 16         0.65591
      10 -> 23         0.15275
      12 -> 27         0.13473

 Excited State  50:      Singlet-B2    13.3115 eV   93.14 nm  f=0.0125  <S**2>=0.000
       8 -> 17         0.14156
      10 -> 22         0.68326

 Excited State  51:      Singlet-A2    13.3658 eV   92.76 nm  f=0.0000  <S**2>=0.000
       7 -> 14        -0.27231
      12 -> 28         0.64789

 Excited State  52:      Singlet-B2    13.4460 eV   92.21 nm  f=0.0287  <S**2>=0.000
       8 -> 17        -0.12164
       9 -> 20         0.69021

 Excited State  53:      Singlet-A2    13.4718 eV   92.03 nm  f=0.0000  <S**2>=0.000
       7 -> 14         0.64941
      12 -> 28         0.26479

 Excited State  54:      Singlet-A1    13.5662 eV   91.39 nm  f=0.0200  <S**2>=0.000
       7 -> 16         0.17398
       9 -> 21         0.51610
      12 -> 29         0.43994

 Excited State  55:      Singlet-B1    13.5828 eV   91.28 nm  f=0.0004  <S**2>=0.000
       7 -> 15         0.66064
      10 -> 23         0.23576

 Excited State  56:      Singlet-B2    13.6772 eV   90.65 nm  f=0.0031  <S**2>=0.000
       8 -> 17         0.66101
       9 -> 20         0.13361
      10 -> 22        -0.13481
      10 -> 24        -0.12941

 Excited State  57:      Singlet-A1    13.7030 eV   90.48 nm  f=0.1333  <S**2>=0.000
       7 -> 16        -0.14816
       8 -> 15         0.10805
       9 -> 21        -0.38262
      11 -> 27         0.24125
      12 -> 29         0.48826

 Excited State  58:      Singlet-A2    13.8144 eV   89.75 nm  f=0.0000  <S**2>=0.000
       9 -> 22         0.69239

 Excited State  59:      Singlet-A2    13.9550 eV   88.85 nm  f=0.0000  <S**2>=0.000
      11 -> 26         0.69633

 Excited State  60:      Singlet-B1    14.0417 eV   88.30 nm  f=0.2185  <S**2>=0.000
       7 -> 15        -0.19432
       7 -> 18         0.12021
      10 -> 23         0.45764
      12 -> 30         0.45731

 Excited State  61:      Singlet-A2    14.1681 eV   87.51 nm  f=0.0000  <S**2>=0.000
      12 -> 31         0.69748

 Excited State  62:      Singlet-A2    14.1996 eV   87.32 nm  f=0.0000  <S**2>=0.000
       7 -> 17         0.69243

 Excited State  63:      Singlet-B1    14.2066 eV   87.27 nm  f=0.1288  <S**2>=0.000
       7 -> 18        -0.15359
      10 -> 23        -0.39341
      12 -> 30         0.53336

 Excited State  64:      Singlet-A1    14.2197 eV   87.19 nm  f=0.0174  <S**2>=0.000
       7 -> 16        -0.38088
       8 -> 18        -0.25913
       9 -> 23         0.51069

 Excited State  65:      Singlet-B2    14.2919 eV   86.75 nm  f=0.2328  <S**2>=0.000
       8 -> 17         0.12222
       9 -> 25         0.16665
      10 -> 24         0.65595

 Excited State  66:      Singlet-A1    14.3224 eV   86.57 nm  f=0.0177  <S**2>=0.000
       7 -> 16         0.29210
       8 -> 18         0.29732
       9 -> 23         0.45291
      11 -> 27         0.28163
      12 -> 32        -0.12801

 Excited State  67:      Singlet-A2    14.5395 eV   85.27 nm  f=0.0000  <S**2>=0.000
       9 -> 24         0.69308
      10 -> 25         0.10736

 Excited State  68:      Singlet-A1    14.5562 eV   85.18 nm  f=0.0114  <S**2>=0.000
       7 -> 16        -0.35520
       8 -> 18         0.54135
       9 -> 21         0.12312
      10 -> 19        -0.11174

 Excited State  69:      Singlet-A1    14.7093 eV   84.29 nm  f=0.0340  <S**2>=0.000
       7 -> 16         0.12888
       8 -> 18         0.15501
       8 -> 20        -0.13638
       9 -> 23         0.13283
      11 -> 27        -0.31870
      12 -> 32         0.52985

 Excited State  70:      Singlet-A2    14.8404 eV   83.54 nm  f=0.0000  <S**2>=0.000
       8 -> 19         0.12493
      10 -> 25         0.67718

 Excited State  71:      Singlet-B2    14.8737 eV   83.36 nm  f=0.0424  <S**2>=0.000
      11 -> 28         0.69167

 Excited State  72:      Singlet-A1    14.9049 eV   83.18 nm  f=0.1681  <S**2>=0.000
       8 -> 18        -0.12982
       8 -> 20         0.18791
       9 -> 17        -0.11716
       9 -> 28        -0.11744
      10 -> 26        -0.12919
      11 -> 27         0.39477
      12 -> 29        -0.11754
      12 -> 32         0.42824

 Excited State  73:      Singlet-B1    14.9654 eV   82.85 nm  f=0.0096  <S**2>=0.000
      11 -> 29         0.69662

 Excited State  74:      Singlet-A2    15.0265 eV   82.51 nm  f=0.0000  <S**2>=0.000
       8 -> 19         0.69480
      10 -> 25        -0.11616

 Excited State  75:      Singlet-B1    15.1367 eV   81.91 nm  f=0.0150  <S**2>=0.000
       7 -> 18         0.36125
      12 -> 33         0.60540

 Excited State  76:      Singlet-B2    15.3668 eV   80.68 nm  f=0.0538  <S**2>=0.000
       9 -> 25         0.49521
      11 -> 31        -0.13288
      12 -> 34        -0.46435

 Excited State  77:      Singlet-B1    15.4604 eV   80.19 nm  f=0.4114  <S**2>=0.000
       7 -> 18         0.54189
       9 -> 26         0.13802
      10 -> 23        -0.13565
      12 -> 33        -0.32664

 Excited State  78:      Singlet-B2    15.5164 eV   79.91 nm  f=0.1910  <S**2>=0.000
       9 -> 25         0.34210
      11 -> 31        -0.32927
      12 -> 34         0.49076

 Excited State  79:      Singlet-A1    15.5617 eV   79.67 nm  f=0.0052  <S**2>=0.000
      11 -> 30         0.69456

 Excited State  80:      Singlet-B2    15.5962 eV   79.50 nm  f=0.0049  <S**2>=0.000
       6 -> 13         0.11397
       8 -> 21         0.62454
      11 -> 31         0.27166

 Excited State  81:      Singlet-A1    15.6434 eV   79.26 nm  f=0.0274  <S**2>=0.000
       8 -> 20         0.49353
      10 -> 26         0.48155

 Excited State  82:      Singlet-B2    15.6900 eV   79.02 nm  f=0.1618  <S**2>=0.000
       6 -> 13         0.23390
       7 -> 19         0.25241
       8 -> 21        -0.31586
       9 -> 25         0.18365
      11 -> 31         0.44351
      12 -> 34         0.16634

 Excited State  83:      Singlet-B2    15.7473 eV   78.73 nm  f=0.0144  <S**2>=0.000
       6 -> 13         0.52205
       7 -> 19        -0.45037

 Excited State  84:      Singlet-A1    15.8100 eV   78.42 nm  f=0.2058  <S**2>=0.000
       6 -> 14         0.16590
       8 -> 20        -0.39322
       9 -> 28        -0.13307
      10 -> 26         0.46837
      11 -> 27         0.12255
      11 -> 33        -0.11311

 Excited State  85:      Singlet-A2    15.8422 eV   78.26 nm  f=0.0000  <S**2>=0.000
      10 -> 27         0.69606

 Excited State  86:      Singlet-B1    15.8889 eV   78.03 nm  f=0.0085  <S**2>=0.000
       8 -> 22         0.68881

 Excited State  87:      Singlet-A2    16.0594 eV   77.20 nm  f=0.0000  <S**2>=0.000
      12 -> 35         0.69552

 Excited State  88:      Singlet-B2    16.0833 eV   77.09 nm  f=0.0067  <S**2>=0.000
       6 -> 13         0.28599
       6 -> 15         0.10336
       7 -> 19         0.40276
       8 -> 23         0.28046
       9 -> 25        -0.11306
       9 -> 27        -0.28206
      11 -> 31        -0.21224

 Excited State  89:      Singlet-B1    16.1347 eV   76.84 nm  f=0.0000  <S**2>=0.000
       9 -> 26         0.26789
      11 -> 32         0.64075

 Excited State  90:      Singlet-B1    16.2042 eV   76.51 nm  f=0.0257  <S**2>=0.000
       7 -> 20         0.50415
       9 -> 26        -0.43358
      11 -> 32         0.18786

 Excited State  91:      Singlet-B1    16.2635 eV   76.23 nm  f=0.0861  <S**2>=0.000
       7 -> 20         0.48698
       8 -> 24        -0.16665
       9 -> 26         0.42943
      11 -> 32        -0.11467
      12 -> 36         0.11328

 Excited State  92:      Singlet-A2    16.3257 eV   75.94 nm  f=0.0000  <S**2>=0.000
       7 -> 21         0.70606

 Excited State  93:      Singlet-B2    16.3401 eV   75.88 nm  f=0.0330  <S**2>=0.000
       6 -> 15         0.14382
       8 -> 23         0.46923
       9 -> 27         0.49846

 Excited State  94:      Singlet-A1    16.3698 eV   75.74 nm  f=0.0058  <S**2>=0.000
       5 -> 13         0.31468
       6 -> 14         0.55890
      11 -> 33         0.26719

 Excited State  95:      Singlet-B1    16.4407 eV   75.41 nm  f=0.0139  <S**2>=0.000
       8 -> 24         0.13993
      11 -> 32         0.10610
      12 -> 36         0.67048

 Excited State  96:      Singlet-A2    16.4482 eV   75.38 nm  f=0.0000  <S**2>=0.000
      12 -> 37         0.70415

 Excited State  97:      Singlet-B2    16.4746 eV   75.26 nm  f=0.0007  <S**2>=0.000
       6 -> 15         0.60714
       8 -> 23        -0.24162
      10 -> 29         0.24963

 Excited State  98:      Singlet-B1    16.5411 eV   74.96 nm  f=0.0040  <S**2>=0.000
      10 -> 28         0.68196

 Excited State  99:      Singlet-A1    16.5695 eV   74.83 nm  f=0.0545  <S**2>=0.000
       5 -> 13        -0.40909
       7 -> 22         0.11343
      11 -> 33         0.54757

 Excited State 100:      Singlet-B2    16.6055 eV   74.66 nm  f=0.0190  <S**2>=0.000
       5 -> 14         0.11803
       6 -> 13         0.12037
       6 -> 15        -0.26154
       7 -> 19         0.11890
       8 -> 23        -0.21810
       9 -> 27         0.24800
      10 -> 29         0.34055
      11 -> 35        -0.12323
      12 -> 38        -0.33543

 Excited State 101:      Singlet-A1    16.6144 eV   74.62 nm  f=0.0611  <S**2>=0.000
       5 -> 13        -0.13688
       6 -> 17         0.10725
       7 -> 22         0.64059
      11 -> 33        -0.21430

 Excited State 102:      Singlet-B2    16.7196 eV   74.16 nm  f=0.0021  <S**2>=0.000
       5 -> 14         0.21934
       6 -> 13         0.11268
       7 -> 19         0.10072
       8 -> 23        -0.20392
       9 -> 27         0.23812
      11 -> 35        -0.13757
      12 -> 38         0.52854

 Excited State 103:      Singlet-B1    16.7447 eV   74.04 nm  f=0.1366  <S**2>=0.000
       8 -> 24         0.64606
       9 -> 26         0.13574

 Excited State 104:      Singlet-B2    16.8031 eV   73.79 nm  f=0.0701  <S**2>=0.000
       5 -> 14        -0.16801
       6 -> 15        -0.13353
       8 -> 23         0.12070
       9 -> 27        -0.11488
      10 -> 29         0.53456
      11 -> 35         0.11116
      12 -> 38         0.30345

 Excited State 105:      Singlet-A2    16.8204 eV   73.71 nm  f=0.0000  <S**2>=0.000
       6 -> 16        -0.48644
      11 -> 34         0.49418

 Excited State 106:      Singlet-A2    16.8436 eV   73.61 nm  f=0.0000  <S**2>=0.000
       6 -> 16         0.48929
      11 -> 34         0.49539

 Excited State 107:      Singlet-B1    16.8836 eV   73.43 nm  f=0.0001  <S**2>=0.000
      12 -> 39         0.70274

 Excited State 108:      Singlet-A1    16.9624 eV   73.09 nm  f=0.0028  <S**2>=0.000
       5 -> 13         0.42095
       6 -> 14        -0.32391
       7 -> 22         0.19165
       7 -> 24        -0.15207
       9 -> 31         0.16311
      11 -> 33         0.22078

 Excited State 109:      Singlet-A2    17.0543 eV   72.70 nm  f=0.0000  <S**2>=0.000
       7 -> 23         0.53967
       9 -> 29        -0.26035
      10 -> 30        -0.35203

 Excited State 110:      Singlet-A1    17.0692 eV   72.64 nm  f=0.0361  <S**2>=0.000
       5 -> 15        -0.14008
       6 -> 17         0.37287
       7 -> 24        -0.12490
       8 -> 25         0.28128
       9 -> 28         0.48690

 Excited State 111:      Singlet-A2    17.2118 eV   72.03 nm  f=0.0000  <S**2>=0.000
       9 -> 29         0.62154
      10 -> 30        -0.31690

 Excited State 112:      Singlet-B2    17.2470 eV   71.89 nm  f=0.0090  <S**2>=0.000
       5 -> 14         0.55583
       5 -> 17         0.10233
      11 -> 35         0.37222

 Excited State 113:      Singlet-B1    17.2594 eV   71.84 nm  f=0.0142  <S**2>=0.000
       5 -> 16        -0.13921
      10 -> 31         0.68089

 Excited State 114:      Singlet-A1    17.3257 eV   71.56 nm  f=0.0035  <S**2>=0.000
       5 -> 15         0.44873
       7 -> 24         0.29786
       8 -> 25         0.43568

 Excited State 115:      Singlet-A2    17.4218 eV   71.17 nm  f=0.0000  <S**2>=0.000
       7 -> 23         0.41516
       9 -> 29         0.20423
      10 -> 30         0.49484

 Excited State 116:      Singlet-A1    17.4623 eV   71.00 nm  f=0.0150  <S**2>=0.000
       5 -> 15        -0.31841
       6 -> 17        -0.15250
       7 -> 24         0.50930
       8 -> 27        -0.11294
       9 -> 28         0.17530
       9 -> 31         0.14522

 Excited State 117:      Singlet-B2    17.6216 eV   70.36 nm  f=0.0023  <S**2>=0.000
       5 -> 14         0.12913
       9 -> 30         0.51507
      11 -> 35        -0.42046

 Excited State 118:      Singlet-A1    17.6333 eV   70.31 nm  f=0.2352  <S**2>=0.000
       5 -> 15        -0.33022
       8 -> 25         0.37642
       8 -> 27         0.10802
       9 -> 28        -0.21566
       9 -> 31        -0.12642
      11 -> 36         0.33340
      11 -> 39         0.11015
      12 -> 44        -0.13214

 Excited State 119:      Singlet-B1    17.7329 eV   69.92 nm  f=0.0117  <S**2>=0.000
       5 -> 16         0.66896
       6 -> 19         0.10202
       7 -> 25        -0.13020
      10 -> 31         0.11408

 Excited State 120:      Singlet-A1    17.8114 eV   69.61 nm  f=0.0125  <S**2>=0.000
       8 -> 25        -0.10526
       9 -> 31         0.39924
      11 -> 36         0.52212

 Excited State 121:      Singlet-B2    17.8205 eV   69.57 nm  f=0.0004  <S**2>=0.000
      11 -> 37         0.69169

 Excited State 122:      Singlet-B2    17.8667 eV   69.39 nm  f=0.0023  <S**2>=0.000
       5 -> 14        -0.11270
       5 -> 17        -0.26529
       6 -> 18        -0.30204
       9 -> 30         0.39429
      10 -> 32         0.17156
      11 -> 35         0.26279
      11 -> 37        -0.13287
      12 -> 42         0.12479

 Excited State 123:      Singlet-A1    17.8855 eV   69.32 nm  f=0.0611  <S**2>=0.000
       6 -> 17         0.47706
       6 -> 21         0.12295
       7 -> 24         0.26889
       8 -> 25        -0.11134
       9 -> 28        -0.22359
      12 -> 41        -0.24013

 Excited State 124:      Singlet-A1    17.9482 eV   69.08 nm  f=0.0003  <S**2>=0.000
       8 -> 27         0.23736
       9 -> 28        -0.10137
       9 -> 31         0.48998
      11 -> 36        -0.27381
      11 -> 39         0.13478
      12 -> 41        -0.11344

 The electronic state is 1-A1.
 Alpha  occ. eigenvalues --  -18.80630  -9.97952  -9.97937  -0.98701  -0.59771
 Alpha  occ. eigenvalues --   -0.56708  -0.46245  -0.43585  -0.36036  -0.34144
 Alpha  occ. eigenvalues --   -0.27939  -0.22898
 Alpha virt. eigenvalues --    0.00922   0.02937   0.03245   0.04858   0.05592
 Alpha virt. eigenvalues --    0.09325   0.11576   0.13366   0.13752   0.14652
 Alpha virt. eigenvalues --    0.16251   0.17328   0.19834   0.23415   0.24028

 Mulliken charges:
               1
     1  C    0.901108
     2  C    0.901108
     3  O   -0.555601
     4  H   -0.311654
     5  H   -0.311654
     6  H   -0.311654
     7  H   -0.311654
 Sum of Mulliken charges =  -0.00000

 Dipole moment (field-independent basis, Debye):
    X=             -0.0000    Y=              0.0000    Z=             -1.8257  Tot=              1.8257
 Quadrupole moment (field-independent basis, Debye-Ang):
   XX=            -17.8673   YY=            -16.9711   ZZ=            -21.1431
   XY=              0.0000   XZ=             -0.0000   YZ=              0.0000

 Normal termination of Gaussian 16 at Mon Mar 21 20:03:56 2022.
