 Gaussian 16, Revision C.01,
 Gaussian 16:  EM64L-G16RevC.01  3-Jul-2019

 --------------------------------------------------------------------
 #P TD(Nstates=10000) blyp/Gen SCF(maxcycles=100) Int(Grid=ultrafine)
 --------------------------------------------------------------------

 ---------------------
 xGDB7_00001_tier4.com
 ---------------------
 Symbolic Z-matrix:
 Charge =  0 Multiplicity = 1

                         Standard orientation:
 ---------------------------------------------------------------------
 Center     Atomic      Atomic             Coordinates (Angstroms)
 Number     Number       Type             X           Y           Z
 ---------------------------------------------------------------------
      1          6           0        0.000000    0.000000    0.597322
      2          6           0        0.000000    0.000000   -0.597322
      3          1           0        0.000000    0.000000    1.661338
      4          1           0        0.000000    0.000000   -1.661338
 ---------------------------------------------------------------------

 SCF Done:  E(RB-LYP) =  -77.2427093962     A.U. after   10 cycles

 Excitation energies and oscillator strengths:

 Excited state symmetry could not be determined.
 Excited State   1:      Singlet-?Sym    6.9262 eV  179.01 nm  f=0.0000  <S**2>=0.000
       6 ->  9        -0.50000
       7 ->  8         0.50000
 This state for optimization and/or second-order correction.
 Total Energy, E(TD-HF/TD-DFT) =  -76.9881779814
 Copying the excited state density for this state as the 1-particle RhoCI density.

 Excited state symmetry could not be determined.
 Excited State   2:      Singlet-?Sym    7.0331 eV  176.29 nm  f=0.0000  <S**2>=0.000
       6 ->  9         0.49998
       7 ->  8         0.49998

 Excited state symmetry could not be determined.
 Excited State   3:      Singlet-?Sym    7.0331 eV  176.29 nm  f=0.0000  <S**2>=0.000
       6 ->  8         0.49998
       7 ->  9        -0.49998

 Excited state symmetry could not be determined.
 Excited State   4:      Singlet-?Sym    7.7538 eV  159.90 nm  f=0.0804  <S**2>=0.000
       7 -> 10         0.70625

 Excited state symmetry could not be determined.
 Excited State   5:      Singlet-?Sym    7.7538 eV  159.90 nm  f=0.0804  <S**2>=0.000
       6 -> 10         0.70625

 Excited state symmetry could not be determined.
 Excited State   6:      Singlet-?Sym    7.9395 eV  156.16 nm  f=0.0000  <S**2>=0.000
       6 -> 11         0.34894
       7 -> 11         0.61348

 Excited state symmetry could not be determined.
 Excited State   7:      Singlet-?Sym    7.9395 eV  156.16 nm  f=0.0000  <S**2>=0.000
       6 -> 11         0.61348
       7 -> 11        -0.34894

 Excited state symmetry could not be determined.
 Excited State   8:      Singlet-?Sym    9.3621 eV  132.43 nm  f=0.0419  <S**2>=0.000
       6 -> 12         0.47135
       7 -> 12         0.52281

 Excited state symmetry could not be determined.
 Excited State   9:      Singlet-?Sym    9.3621 eV  132.43 nm  f=0.0419  <S**2>=0.000
       6 -> 12         0.52281
       7 -> 12        -0.47135

 Excited state symmetry could not be determined.
 Excited State  10:      Singlet-?Sym   10.0430 eV  123.45 nm  f=0.7753  <S**2>=0.000
       6 ->  8         0.46263
       6 -> 18         0.18810
       7 ->  9         0.46263
       7 -> 19         0.18810

 Excited state symmetry could not be determined.
 Excited State  11:      Singlet-?Sym   11.0424 eV  112.28 nm  f=0.0000  <S**2>=0.000
       6 -> 13         0.62506
       7 -> 13         0.31051

 Excited state symmetry could not be determined.
 Excited State  12:      Singlet-?Sym   11.0424 eV  112.28 nm  f=0.0000  <S**2>=0.000
       6 -> 13        -0.31051
       7 -> 13         0.62506

 Excited state symmetry could not be determined.
 Excited State  13:      Singlet-?Sym   11.1516 eV  111.18 nm  f=0.0000  <S**2>=0.000
       6 -> 14         0.49998
       7 -> 15        -0.49998

 Excited state symmetry could not be determined.
 Excited State  14:      Singlet-?Sym   11.1516 eV  111.18 nm  f=0.0000  <S**2>=0.000
       6 -> 15         0.49998
       7 -> 14         0.49998

 Excited state symmetry could not be determined.
 Excited State  15:      Singlet-?Sym   11.1938 eV  110.76 nm  f=0.0000  <S**2>=0.000
       6 -> 15        -0.50000
       7 -> 14         0.50000

 Excited state symmetry could not be determined.
 Excited State  16:      Singlet-?Sym   11.9808 eV  103.49 nm  f=0.0000  <S**2>=0.000
       5 -> 10         0.11299
       5 -> 12        -0.15294
       6 -> 14         0.47496
       7 -> 15         0.47496

 Excited state symmetry could not be determined.
 Excited State  17:      Singlet-?Sym   12.3104 eV  100.72 nm  f=0.0000  <S**2>=0.000
       5 ->  8         0.69440

 Excited state symmetry could not be determined.
 Excited State  18:      Singlet-?Sym   12.3104 eV  100.72 nm  f=0.0000  <S**2>=0.000
       5 ->  9         0.69440

 Excited state symmetry could not be determined.
 Excited State  19:      Singlet-?Sym   12.8387 eV   96.57 nm  f=0.0000  <S**2>=0.000
       6 -> 16         0.47493
       6 -> 17        -0.15639
       7 -> 16        -0.15639
       7 -> 17        -0.47493

 Excited state symmetry could not be determined.
 Excited State  20:      Singlet-?Sym   12.8387 eV   96.57 nm  f=0.0000  <S**2>=0.000
       6 -> 16         0.15639
       6 -> 17         0.47493
       7 -> 16         0.47493
       7 -> 17        -0.15639

 Excited State  21:      Singlet-SGG   12.9822 eV   95.50 nm  f=0.0000  <S**2>=0.000
       5 -> 10         0.69154

 Excited State  22:      Singlet-SGU   13.1325 eV   94.41 nm  f=0.2832  <S**2>=0.000
       5 -> 11         0.70042

 Excited state symmetry could not be determined.
 Excited State  23:      Singlet-?Sym   13.3777 eV   92.68 nm  f=0.1550  <S**2>=0.000
       4 ->  8        -0.32590
       4 ->  9         0.10399
       6 -> 16        -0.13241
       6 -> 17        -0.41497
       7 -> 16         0.41497
       7 -> 17        -0.13241

 Excited state symmetry could not be determined.
 Excited State  24:      Singlet-?Sym   13.3777 eV   92.68 nm  f=0.1550  <S**2>=0.000
       4 ->  8        -0.10399
       4 ->  9        -0.32590
       6 -> 16         0.41497
       6 -> 17        -0.13241
       7 -> 16         0.13241
       7 -> 17         0.41497

 Excited state symmetry could not be determined.
 Excited State  25:      Singlet-?Sym   13.4550 eV   92.15 nm  f=0.0000  <S**2>=0.000
       6 -> 18         0.49993
       7 -> 19        -0.49993

 Excited state symmetry could not be determined.
 Excited State  26:      Singlet-?Sym   13.4550 eV   92.15 nm  f=0.0000  <S**2>=0.000
       6 -> 19         0.49993
       7 -> 18         0.49993

 Excited state symmetry could not be determined.
 Excited State  27:      Singlet-?Sym   13.5102 eV   91.77 nm  f=0.0000  <S**2>=0.000
       6 -> 19        -0.50000
       7 -> 18         0.50000

 Excited State  28:      Singlet-SGU   14.4131 eV   86.02 nm  f=0.0719  <S**2>=0.000
       4 -> 10         0.59052
       6 -> 18         0.26345
       7 -> 19         0.26345

 Excited State  29:      Singlet-SGG   14.5772 eV   85.05 nm  f=0.0000  <S**2>=0.000
       4 -> 11        -0.49214
       5 -> 12         0.50355

 Excited state symmetry could not be determined.
 Excited State  30:      Singlet-?Sym   14.9383 eV   83.00 nm  f=0.3390  <S**2>=0.000
       4 ->  8         0.56358
       5 -> 14        -0.13870
       6 -> 17        -0.20092
       6 -> 20        -0.23994
       6 -> 22        -0.13695
       7 -> 16         0.20092

 Excited state symmetry could not be determined.
 Excited State  31:      Singlet-?Sym   14.9383 eV   83.00 nm  f=0.3390  <S**2>=0.000
       4 ->  9         0.56358
       5 -> 15        -0.13870
       6 -> 16         0.20092
       7 -> 17         0.20092
       7 -> 20        -0.23994
       7 -> 22        -0.13695

 Excited State  32:      Singlet-SGU   15.2394 eV   81.36 nm  f=0.0120  <S**2>=0.000
       4 -> 10         0.34856
       4 -> 12         0.25055
       5 -> 13         0.22212
       6 ->  8         0.12696
       6 -> 18        -0.31893
       7 ->  9         0.12696
       7 -> 19        -0.31893

 Excited state symmetry could not be determined.
 Excited State  33:      Singlet-?Sym   15.6063 eV   79.45 nm  f=0.0000  <S**2>=0.000
       6 -> 21         0.67436
       7 -> 21        -0.18961

 Excited state symmetry could not be determined.
 Excited State  34:      Singlet-?Sym   15.6063 eV   79.45 nm  f=0.0000  <S**2>=0.000
       6 -> 21         0.18961
       7 -> 21         0.67436

 Excited State  35:      Singlet-SGG   15.6073 eV   79.44 nm  f=0.0000  <S**2>=0.000
       4 -> 11         0.46987
       4 -> 13         0.16030
       5 -> 12         0.43865
       6 -> 14         0.10909
       7 -> 15         0.10909

 Excited state symmetry could not be determined.
 Excited State  36:      Singlet-?Sym   15.7435 eV   78.75 nm  f=0.2253  <S**2>=0.000
       4 ->  8         0.13463
       5 -> 14        -0.19142
       6 -> 20         0.63851
       6 -> 22        -0.12206

 Excited state symmetry could not be determined.
 Excited State  37:      Singlet-?Sym   15.7435 eV   78.75 nm  f=0.2253  <S**2>=0.000
       4 ->  9         0.13463
       5 -> 15        -0.19142
       7 -> 20         0.63851
       7 -> 22        -0.12206

 Excited state symmetry could not be determined.
 Excited State  38:      Singlet-?Sym   16.3002 eV   76.06 nm  f=0.0963  <S**2>=0.000
       5 -> 14         0.50549
       5 -> 15        -0.13943
       6 -> 22        -0.45243
       7 -> 22         0.12480

 Excited state symmetry could not be determined.
 Excited State  39:      Singlet-?Sym   16.3002 eV   76.06 nm  f=0.0963  <S**2>=0.000
       5 -> 14         0.13943
       5 -> 15         0.50549
       6 -> 22        -0.12480
       7 -> 22        -0.45243

 Excited State  40:      Singlet-SGU   16.3340 eV   75.91 nm  f=0.0192  <S**2>=0.000
       4 -> 10        -0.12189
       4 -> 12         0.57524
       5 -> 13         0.22661
       6 -> 18         0.14768
       6 -> 29        -0.12551
       7 -> 19         0.14768
       7 -> 28        -0.12551

 Excited state symmetry could not be determined.
 Excited State  41:      Singlet-?Sym   16.4848 eV   75.21 nm  f=0.0000  <S**2>=0.000
       6 -> 23         0.49997
       7 -> 24        -0.49997

 Excited state symmetry could not be determined.
 Excited State  42:      Singlet-?Sym   16.4848 eV   75.21 nm  f=0.0000  <S**2>=0.000
       6 -> 24         0.49997
       7 -> 23         0.49997

 Excited state symmetry could not be determined.
 Excited State  43:      Singlet-?Sym   16.6283 eV   74.56 nm  f=0.4450  <S**2>=0.000
       4 ->  9         0.18055
       5 -> 14        -0.16740
       5 -> 15         0.37234
       6 -> 22        -0.20279
       7 -> 20         0.13320
       7 -> 22         0.45105

 Excited state symmetry could not be determined.
 Excited State  44:      Singlet-?Sym   16.6283 eV   74.56 nm  f=0.4450  <S**2>=0.000
       4 ->  8         0.18055
       5 -> 14         0.37234
       5 -> 15         0.16740
       6 -> 20         0.13320
       6 -> 22         0.45105
       7 -> 22         0.20279

 Excited state symmetry could not be determined.
 Excited State  45:      Singlet-?Sym   16.7636 eV   73.96 nm  f=0.0000  <S**2>=0.000
       6 -> 23        -0.29503
       6 -> 24         0.39357
       7 -> 23        -0.39357
       7 -> 24        -0.29503

 Excited state symmetry could not be determined.
 Excited State  46:      Singlet-?Sym   16.7636 eV   73.96 nm  f=0.0000  <S**2>=0.000
       6 -> 23         0.39357
       6 -> 24         0.29503
       7 -> 23        -0.29503
       7 -> 24         0.39357

 Excited State  47:      Singlet-SGU   16.8722 eV   73.48 nm  f=0.7015  <S**2>=0.000
       4 -> 12        -0.30210
       5 -> 13         0.61221

 Excited state symmetry could not be determined.
 Excited State  48:      Singlet-?Sym   17.1407 eV   72.33 nm  f=0.0000  <S**2>=0.000
       6 -> 25         0.49954
       7 -> 26        -0.49954

 Excited state symmetry could not be determined.
 Excited State  49:      Singlet-?Sym   17.1407 eV   72.33 nm  f=0.0000  <S**2>=0.000
       6 -> 26         0.49954
       7 -> 25         0.49954

 Excited state symmetry could not be determined.
 Excited State  50:      Singlet-?Sym   17.3403 eV   71.50 nm  f=0.0000  <S**2>=0.000
       6 -> 26        -0.50000
       7 -> 25         0.50000

 Excited state symmetry could not be determined.
 Excited State  51:      Singlet-?Sym   17.7195 eV   69.97 nm  f=0.0000  <S**2>=0.000
       3 -> 10        -0.12824
       4 -> 13         0.18883
       6 -> 25         0.45418
       7 -> 26         0.45418

 Excited state symmetry could not be determined.
 Excited State  52:      Singlet-?Sym   17.8175 eV   69.59 nm  f=0.0000  <S**2>=0.000
       3 ->  8         0.16759
       6 -> 27         0.64758
       7 -> 27         0.21914

 Excited state symmetry could not be determined.
 Excited State  53:      Singlet-?Sym   17.8175 eV   69.59 nm  f=0.0000  <S**2>=0.000
       3 ->  9         0.16759
       6 -> 27        -0.21914
       7 -> 27         0.64758

 Excited state symmetry could not be determined.
 Excited State  54:      Singlet-?Sym   17.9546 eV   69.05 nm  f=0.0000  <S**2>=0.000
       4 -> 14        -0.32572
       4 -> 15         0.62416

 Excited state symmetry could not be determined.
 Excited State  55:      Singlet-?Sym   17.9546 eV   69.05 nm  f=0.0000  <S**2>=0.000
       4 -> 14         0.62416
       4 -> 15         0.32572

 Excited state symmetry could not be determined.
 Excited State  56:      Singlet-?Sym   18.1010 eV   68.50 nm  f=0.0000  <S**2>=0.000
       5 -> 16         0.70651

 Excited state symmetry could not be determined.
 Excited State  57:      Singlet-?Sym   18.1010 eV   68.50 nm  f=0.0000  <S**2>=0.000
       5 -> 17         0.70651

 Excited state symmetry could not be determined.
 Excited State  58:      Singlet-?Sym   18.1753 eV   68.22 nm  f=0.0000  <S**2>=0.000
       6 -> 29        -0.49970
       7 -> 28         0.49970

 Excited state symmetry could not be determined.
 Excited State  59:      Singlet-?Sym   18.1754 eV   68.22 nm  f=0.0000  <S**2>=0.000
       6 -> 28         0.49970
       7 -> 29         0.49970

 Excited state symmetry could not be determined.
 Excited State  60:      Singlet-?Sym   18.3268 eV   67.65 nm  f=0.0000  <S**2>=0.000
       6 -> 28         0.50000
       7 -> 29        -0.50000

 Excited State  61:      Singlet-SGG   18.3655 eV   67.51 nm  f=0.0000  <S**2>=0.000
       4 -> 13         0.64708
       6 -> 25        -0.15265
       7 -> 26        -0.15265

 Excited state symmetry could not be determined.
 Excited State  62:      Singlet-?Sym   18.5083 eV   66.99 nm  f=0.0000  <S**2>=0.000
       5 -> 18         0.65430
       5 -> 19         0.24807

 Excited state symmetry could not be determined.
 Excited State  63:      Singlet-?Sym   18.5083 eV   66.99 nm  f=0.0000  <S**2>=0.000
       5 -> 18        -0.24807
       5 -> 19         0.65430

 Excited state symmetry could not be determined.
 Excited State  64:      Singlet-?Sym   18.5186 eV   66.95 nm  f=0.0262  <S**2>=0.000
       3 -> 11        -0.32852
       6 -> 29         0.42578
       7 -> 28         0.42578

 Excited state symmetry could not be determined.
 Excited State  65:      Singlet-?Sym   18.9419 eV   65.45 nm  f=0.0000  <S**2>=0.000
       3 ->  8         0.65651
       6 -> 27        -0.16484

 Excited state symmetry could not be determined.
 Excited State  66:      Singlet-?Sym   18.9419 eV   65.45 nm  f=0.0000  <S**2>=0.000
       3 ->  9         0.65651
       7 -> 27        -0.16484

 Excited State  67:      Singlet-SGG   19.0487 eV   65.09 nm  f=0.0000  <S**2>=0.000
       3 -> 10         0.68779

 Excited State  68:      Singlet-SGU   19.5331 eV   63.47 nm  f=0.0121  <S**2>=0.000
       3 -> 11         0.60274
       3 -> 13         0.11625
       5 -> 27         0.10610
       6 -> 29         0.18167
       7 -> 28         0.18167

 Excited state symmetry could not be determined.
 Excited State  69:      Singlet-?Sym   19.7907 eV   62.65 nm  f=0.0000  <S**2>=0.000
       4 -> 16         0.70667

 Excited state symmetry could not be determined.
 Excited State  70:      Singlet-?Sym   19.7907 eV   62.65 nm  f=0.0000  <S**2>=0.000
       4 -> 17         0.70667

 Excited state symmetry could not be determined.
 Excited State  71:      Singlet-?Sym   20.3768 eV   60.85 nm  f=0.0035  <S**2>=0.000
       4 -> 18        -0.32828
       4 -> 19         0.61815

 Excited state symmetry could not be determined.
 Excited State  72:      Singlet-?Sym   20.3768 eV   60.85 nm  f=0.0035  <S**2>=0.000
       4 -> 18         0.61815
       4 -> 19         0.32828

 Excited State  73:      Singlet-SGG   20.7120 eV   59.86 nm  f=0.0000  <S**2>=0.000
       3 -> 12         0.54277
       5 -> 20        -0.43437

 Excited State  74:      Singlet-SGU   20.8345 eV   59.51 nm  f=0.2434  <S**2>=0.000
       5 -> 21         0.69636

 Excited State  75:      Singlet-SGG   20.9793 eV   59.10 nm  f=0.0000  <S**2>=0.000
       3 -> 12         0.43610
       5 -> 20         0.54514

 Excited state symmetry could not be determined.
 Excited State  76:      Singlet-?Sym   21.7604 eV   56.98 nm  f=0.0000  <S**2>=0.000
       5 -> 23         0.70704

 Excited state symmetry could not be determined.
 Excited State  77:      Singlet-?Sym   21.7604 eV   56.98 nm  f=0.0000  <S**2>=0.000
       5 -> 24         0.70704

 Excited State  78:      Singlet-SGG   21.8201 eV   56.82 nm  f=0.0000  <S**2>=0.000
       4 -> 21         0.33133
       5 -> 22         0.60709

 Excited State  79:      Singlet-SGU   22.3655 eV   55.44 nm  f=0.0303  <S**2>=0.000
       3 -> 13         0.51768
       4 -> 20         0.46276

 Excited State  80:      Singlet-SGU   22.4782 eV   55.16 nm  f=0.0041  <S**2>=0.000
       3 -> 13        -0.41504
       4 -> 20         0.45463
       4 -> 22         0.19186
       5 -> 27         0.27451

 Excited state symmetry could not be determined.
 Excited State  81:      Singlet-?Sym   22.5862 eV   54.89 nm  f=0.1033  <S**2>=0.000
       3 -> 14         0.48535
       5 -> 25         0.50901

 Excited state symmetry could not be determined.
 Excited State  82:      Singlet-?Sym   22.5862 eV   54.89 nm  f=0.1033  <S**2>=0.000
       3 -> 15         0.48535
       5 -> 26         0.50901

 Excited state symmetry could not be determined.
 Excited State  83:      Singlet-?Sym   22.7076 eV   54.60 nm  f=0.0510  <S**2>=0.000
       3 -> 14         0.46442
       3 -> 15        -0.19878
       5 -> 25        -0.44057
       5 -> 26         0.18857

 Excited state symmetry could not be determined.
 Excited State  84:      Singlet-?Sym   22.7076 eV   54.60 nm  f=0.0510  <S**2>=0.000
       3 -> 14         0.19878
       3 -> 15         0.46442
       5 -> 25        -0.18857
       5 -> 26        -0.44057

 Excited State  85:      Singlet-SGG   22.9503 eV   54.02 nm  f=0.0000  <S**2>=0.000
       4 -> 21         0.60029
       5 -> 22        -0.28131
       6 -> 32        -0.12399
       7 -> 33        -0.12399

 Excited state symmetry could not be determined.
 Excited State  86:      Singlet-?Sym   23.3332 eV   53.14 nm  f=0.0000  <S**2>=0.000
       5 -> 28         0.70528

 Excited state symmetry could not be determined.
 Excited State  87:      Singlet-?Sym   23.3332 eV   53.14 nm  f=0.0000  <S**2>=0.000
       5 -> 29         0.70528

 Excited state symmetry could not be determined.
 Excited State  88:      Singlet-?Sym   23.4593 eV   52.85 nm  f=0.0000  <S**2>=0.000
       4 -> 23         0.70524

 Excited state symmetry could not be determined.
 Excited State  89:      Singlet-?Sym   23.4593 eV   52.85 nm  f=0.0000  <S**2>=0.000
       4 -> 24         0.70524

 Excited State  90:      Singlet-SGU   23.5196 eV   52.72 nm  f=0.2758  <S**2>=0.000
       3 -> 13         0.11664
       4 -> 22         0.62870
       5 -> 27        -0.26839

 Excited state symmetry could not be determined.
 Excited State  91:      Singlet-?Sym   23.8603 eV   51.96 nm  f=0.0000  <S**2>=0.000
       3 -> 19         0.10386
       4 -> 26        -0.10934
       7 -> 30         0.68630

 Excited state symmetry could not be determined.
 Excited State  92:      Singlet-?Sym   23.8603 eV   51.96 nm  f=0.0000  <S**2>=0.000
       3 -> 18         0.10386
       4 -> 25        -0.10934
       6 -> 30         0.68630

 Excited State  93:      Singlet-SGU   24.2339 eV   51.16 nm  f=0.0362  <S**2>=0.000
       3 -> 13         0.13439
       3 -> 21         0.14619
       4 -> 20        -0.24659
       4 -> 22         0.20807
       5 -> 27         0.54915
       5 -> 30         0.10156

 Excited state symmetry could not be determined.
 Excited State  94:      Singlet-?Sym   24.3017 eV   51.02 nm  f=0.0000  <S**2>=0.000
       3 -> 18         0.19368
       3 -> 19         0.15656
       4 -> 25         0.50982
       4 -> 26         0.41209

 Excited state symmetry could not be determined.
 Excited State  95:      Singlet-?Sym   24.3017 eV   51.02 nm  f=0.0000  <S**2>=0.000
       3 -> 18        -0.15656
       3 -> 19         0.19368
       4 -> 25        -0.41209
       4 -> 26         0.50982

 Excited state symmetry could not be determined.
 Excited State  96:      Singlet-?Sym   24.3468 eV   50.92 nm  f=0.0000  <S**2>=0.000
       3 -> 16         0.70529

 Excited state symmetry could not be determined.
 Excited State  97:      Singlet-?Sym   24.3468 eV   50.92 nm  f=0.0000  <S**2>=0.000
       3 -> 17         0.70529

 Excited state symmetry could not be determined.
 Excited State  98:      Singlet-?Sym   24.8564 eV   49.88 nm  f=0.0176  <S**2>=0.000
       4 -> 28        -0.30731
       7 -> 31         0.63460

 Excited state symmetry could not be determined.
 Excited State  99:      Singlet-?Sym   24.8564 eV   49.88 nm  f=0.0176  <S**2>=0.000
       4 -> 29        -0.30731
       6 -> 31         0.63460

 Excited state symmetry could not be determined.
 Excited State 100:      Singlet-?Sym   25.0950 eV   49.41 nm  f=0.0000  <S**2>=0.000
       3 -> 18         0.16059
       3 -> 19         0.63025
       4 -> 26        -0.21905
       7 -> 30        -0.12645

 Excited state symmetry could not be determined.
 Excited State 101:      Singlet-?Sym   25.0950 eV   49.41 nm  f=0.0000  <S**2>=0.000
       3 -> 18         0.63025
       3 -> 19        -0.16059
       4 -> 25        -0.21905
       6 -> 30        -0.12645

 Excited state symmetry could not be determined.
 Excited State 102:      Singlet-?Sym   25.1206 eV   49.36 nm  f=0.0031  <S**2>=0.000
       4 -> 28         0.63485
       7 -> 31         0.30110

 Excited state symmetry could not be determined.
 Excited State 103:      Singlet-?Sym   25.1206 eV   49.36 nm  f=0.0031  <S**2>=0.000
       4 -> 29         0.63485
       6 -> 31         0.30110

 Excited State 104:      Singlet-SGG   25.1668 eV   49.26 nm  f=0.0000  <S**2>=0.000
       4 -> 27         0.68968

 Excited state symmetry could not be determined.
 Excited State 105:      Singlet-?Sym   26.0679 eV   47.56 nm  f=0.0000  <S**2>=0.000
       6 -> 32         0.49999
       7 -> 33        -0.49999

 Excited state symmetry could not be determined.
 Excited State 106:      Singlet-?Sym   26.0679 eV   47.56 nm  f=0.0000  <S**2>=0.000
       6 -> 33         0.49999
       7 -> 32         0.49999

 Excited state symmetry could not be determined.
 Excited State 107:      Singlet-?Sym   26.2692 eV   47.20 nm  f=0.0000  <S**2>=0.000
       6 -> 33        -0.50000
       7 -> 32         0.50000

 Excited State 108:      Singlet-SGG   26.7053 eV   46.43 nm  f=0.0000  <S**2>=0.000
       3 -> 20         0.63683
       6 -> 32        -0.20874
       7 -> 33        -0.20874

 Excited State 109:      Singlet-SGU   27.1058 eV   45.74 nm  f=0.0020  <S**2>=0.000
       3 -> 21         0.67729

 Excited State 110:      Singlet-SGG   27.7366 eV   44.70 nm  f=0.0000  <S**2>=0.000
       3 -> 22         0.69018

 Excited state symmetry could not be determined.

 The electronic state is 1-SGG.
 Alpha  occ. eigenvalues --   -9.93334  -9.93101  -0.66838  -0.50552  -0.44374
 Alpha  occ. eigenvalues --   -0.25719  -0.25719
 Alpha virt. eigenvalues --   -0.00266  -0.00266   0.02650   0.03179   0.08306
 Alpha virt. eigenvalues --    0.14410   0.15418   0.15418   0.22202   0.22202
 Alpha virt. eigenvalues --    0.23930   0.23930   0.31393   0.31417   0.34435

 Mulliken charges:
               1
     1  C    0.387260
     2  C    0.387260
     3  H   -0.387260
     4  H   -0.387260
 Sum of Mulliken charges =  -0.00000

 Dipole moment (field-independent basis, Debye):
    X=             -0.0000    Y=             -0.0000    Z=              0.0000  Tot=              0.0000
 Quadrupole moment (field-independent basis, Debye-Ang):
   XX=            -13.4643   YY=            -13.4643   ZZ=             -7.6609
   XY=             -0.0000   XZ=              0.0000   YZ=              0.0000

 Normal termination of Gaussian 16 at Mon Mar 21 20:06:30 2022.
