 Gaussian 16, Revision C.01,
 Gaussian 16:  EM64L-G16RevC.01  3-Jul-2019

 --------------------------------------------------------------------
 #P TD(Nstates=10000) blyp/Gen SCF(maxcycles=100) Int(Grid=ultrafine)
 --------------------------------------------------------------------

 ---------------------
 xGDB7_00001_tier4.com
 ---------------------
 Symbolic Z-matrix:
 Charge =  0 Multiplicity = 1

                         Standard orientation:
 ---------------------------------------------------------------------
 Center     Atomic      Atomic             Coordinates (Angstroms)
 Number     Number       Type             X           Y           Z
 ---------------------------------------------------------------------
      1          6           0       -1.131573   -0.504386    0.000000
      2          6           0        0.000000    0.472223    0.000000
      3          6           0        1.284136    0.150792    0.000000
      4          1           0       -1.767446   -0.362776    0.877699
      5          1           0       -0.770122   -1.533458    0.000000
      6          1           0       -1.767446   -0.362776   -0.877699
      7          1           0       -0.276551    1.523465    0.000000
      8          1           0        1.608435   -0.884555    0.000000
      9          1           0        2.057749    0.908327    0.000000
 ---------------------------------------------------------------------

 SCF Done:  E(RB-LYP) =  -117.752251857     A.U. after   14 cycles

 Excitation energies and oscillator strengths:

 Excited State   1:      Singlet-A"     6.4838 eV  191.22 nm  f=0.0057  <S**2>=0.000
      12 -> 14         0.70683
 This state for optimization and/or second-order correction.
 Total Energy, E(TD-HF/TD-DFT) =  -117.513976561
 Copying the excited state density for this state as the 1-particle RhoCI density.

 Excited State   2:      Singlet-A"     7.2149 eV  171.85 nm  f=0.0367  <S**2>=0.000
      12 -> 15         0.70077

 Excited State   3:      Singlet-A"     7.2469 eV  171.09 nm  f=0.0000  <S**2>=0.000
      12 -> 16         0.70032

 Excited State   4:      Singlet-A'     7.3665 eV  168.31 nm  f=0.3687  <S**2>=0.000
       9 -> 13        -0.11071
      12 -> 13         0.68192

 Excited State   5:      Singlet-A"     7.8420 eV  158.10 nm  f=0.0000  <S**2>=0.000
      11 -> 13         0.70311

 Excited State   6:      Singlet-A"     8.4059 eV  147.50 nm  f=0.0020  <S**2>=0.000
      10 -> 13        -0.24686
      12 -> 17         0.66150

 Excited State   7:      Singlet-A"     8.4627 eV  146.51 nm  f=0.0001  <S**2>=0.000
      10 -> 13         0.65860
      12 -> 17         0.24567

 Excited State   8:      Singlet-A'     8.5538 eV  144.95 nm  f=0.0045  <S**2>=0.000
      11 -> 14        -0.32917
      12 -> 18         0.62331

 Excited State   9:      Singlet-A'     8.6333 eV  143.61 nm  f=0.0470  <S**2>=0.000
      11 -> 14         0.62320
      12 -> 18         0.32547

 Excited State  10:      Singlet-A"     8.9280 eV  138.87 nm  f=0.0143  <S**2>=0.000
      12 -> 19         0.70097

 Excited State  11:      Singlet-A'     9.2805 eV  133.60 nm  f=0.0432  <S**2>=0.000
      10 -> 14         0.63364
      11 -> 15        -0.30441

 Excited State  12:      Singlet-A'     9.3029 eV  133.28 nm  f=0.0428  <S**2>=0.000
      10 -> 14         0.29762
      11 -> 15         0.63411

 Excited State  13:      Singlet-A"     9.3591 eV  132.48 nm  f=0.0128  <S**2>=0.000
      12 -> 20         0.69969

 Excited State  14:      Singlet-A'     9.4365 eV  131.39 nm  f=0.1580  <S**2>=0.000
      11 -> 16         0.69467

 Excited State  15:      Singlet-A"     9.7572 eV  127.07 nm  f=0.0001  <S**2>=0.000
       8 -> 13         0.68637
      12 -> 22         0.15435

 Excited State  16:      Singlet-A'     9.7975 eV  126.55 nm  f=0.0551  <S**2>=0.000
      12 -> 21         0.68224

 Excited State  17:      Singlet-A'     9.9087 eV  125.13 nm  f=0.0272  <S**2>=0.000
       9 -> 13         0.67386
      12 -> 13         0.11009

 Excited State  18:      Singlet-A"     9.9140 eV  125.06 nm  f=0.0265  <S**2>=0.000
       8 -> 13        -0.15236
      12 -> 22         0.67838

 Excited State  19:      Singlet-A'    10.0051 eV  123.92 nm  f=0.0053  <S**2>=0.000
      10 -> 15         0.64640
      10 -> 16        -0.26102

 Excited State  20:      Singlet-A'    10.0382 eV  123.51 nm  f=0.0613  <S**2>=0.000
      10 -> 15         0.25548
      10 -> 16         0.64748

 Excited State  21:      Singlet-A"    10.1237 eV  122.47 nm  f=0.0017  <S**2>=0.000
      12 -> 23         0.70295

 Excited State  22:      Singlet-A"    10.4054 eV  119.15 nm  f=0.0872  <S**2>=0.000
       9 -> 14         0.69412

 Excited State  23:      Singlet-A'    10.5538 eV  117.48 nm  f=0.0084  <S**2>=0.000
       8 -> 14         0.52230
      11 -> 17         0.42233
      12 -> 24        -0.19932

 Excited State  24:      Singlet-A"    10.6066 eV  116.89 nm  f=0.0048  <S**2>=0.000
      11 -> 18         0.70274

 Excited State  25:      Singlet-A'    10.6125 eV  116.83 nm  f=0.0597  <S**2>=0.000
       8 -> 14        -0.45629
      11 -> 17         0.50849

 Excited State  26:      Singlet-A'    10.7904 eV  114.90 nm  f=0.0143  <S**2>=0.000
       8 -> 15        -0.11013
      11 -> 17         0.17803
      12 -> 24         0.62445

 Excited State  27:      Singlet-A"    10.9165 eV  113.58 nm  f=0.0019  <S**2>=0.000
       7 -> 13         0.66043
      12 -> 25        -0.23500

 Excited State  28:      Singlet-A'    11.0293 eV  112.41 nm  f=0.0586  <S**2>=0.000
      10 -> 17         0.18225
      11 -> 19         0.66771

 Excited State  29:      Singlet-A"    11.0616 eV  112.09 nm  f=0.0006  <S**2>=0.000
       9 -> 15        -0.31918
       9 -> 16         0.60850
      12 -> 25         0.14326

 Excited State  30:      Singlet-A"    11.0752 eV  111.95 nm  f=0.0159  <S**2>=0.000
       9 -> 15         0.61980
       9 -> 16         0.32929

 Excited State  31:      Singlet-A"    11.1170 eV  111.53 nm  f=0.0788  <S**2>=0.000
       7 -> 13         0.20578
       9 -> 16        -0.13133
      10 -> 18         0.14866
      12 -> 25         0.62762

 Excited State  32:      Singlet-A'    11.1980 eV  110.72 nm  f=0.0409  <S**2>=0.000
       8 -> 15        -0.37589
       8 -> 16        -0.23522
      10 -> 17         0.52561
      11 -> 19        -0.12842

 Excited State  33:      Singlet-A'    11.3225 eV  109.50 nm  f=0.0592  <S**2>=0.000
       8 -> 15         0.48675
       8 -> 16        -0.39466
      10 -> 17         0.18692
      11 -> 20         0.19738

 Excited State  34:      Singlet-A"    11.3391 eV  109.34 nm  f=0.0524  <S**2>=0.000
      10 -> 18         0.67990

 Excited State  35:      Singlet-A'    11.3433 eV  109.30 nm  f=0.0609  <S**2>=0.000
       8 -> 15         0.30302
       8 -> 16         0.41611
      10 -> 17         0.31609
      11 -> 19        -0.13237
      11 -> 20        -0.31087

 Excited State  36:      Singlet-A'    11.4573 eV  108.21 nm  f=0.0380  <S**2>=0.000
       8 -> 16         0.30708
      10 -> 17         0.17199
      11 -> 20         0.58681

 Excited State  37:      Singlet-A'    11.6749 eV  106.20 nm  f=0.0306  <S**2>=0.000
       7 -> 14         0.58575
      10 -> 19        -0.38283

 Excited State  38:      Singlet-A"    11.7239 eV  105.75 nm  f=0.0321  <S**2>=0.000
      11 -> 21         0.69613

 Excited State  39:      Singlet-A'    11.7856 eV  105.20 nm  f=0.0125  <S**2>=0.000
       7 -> 14         0.34764
      10 -> 19         0.54887
      11 -> 23         0.11770
      12 -> 26         0.11137

 Excited State  40:      Singlet-A'    11.8727 eV  104.43 nm  f=0.1147  <S**2>=0.000
      11 -> 22        -0.18074
      12 -> 26         0.64634

 Excited State  41:      Singlet-A"    12.0234 eV  103.12 nm  f=0.0098  <S**2>=0.000
      12 -> 27         0.69764

 Excited State  42:      Singlet-A'    12.1000 eV  102.47 nm  f=0.0994  <S**2>=0.000
      10 -> 20         0.19720
      11 -> 22         0.63567
      12 -> 26         0.17171

 Excited State  43:      Singlet-A'    12.1274 eV  102.23 nm  f=0.0010  <S**2>=0.000
       9 -> 18        -0.21074
      10 -> 20         0.64104
      11 -> 22        -0.19711

 Excited State  44:      Singlet-A"    12.2581 eV  101.14 nm  f=0.0098  <S**2>=0.000
       9 -> 17         0.70133

 Excited State  45:      Singlet-A'    12.2871 eV  100.91 nm  f=0.0076  <S**2>=0.000
       7 -> 15         0.24366
       7 -> 16         0.27681
       9 -> 18        -0.11221
      11 -> 23         0.57627

 Excited State  46:      Singlet-A"    12.3954 eV  100.02 nm  f=0.0037  <S**2>=0.000
      10 -> 21        -0.24927
      12 -> 28         0.64614

 Excited State  47:      Singlet-A'    12.4186 eV   99.84 nm  f=0.0328  <S**2>=0.000
       7 -> 15         0.51046
       7 -> 16        -0.44793
       8 -> 17        -0.11994

 Excited State  48:      Singlet-A"    12.4510 eV   99.58 nm  f=0.0010  <S**2>=0.000
       9 -> 19         0.20882
      10 -> 21         0.62088
      12 -> 28         0.23719

 Excited State  49:      Singlet-A'    12.5027 eV   99.17 nm  f=0.1935  <S**2>=0.000
       7 -> 15        -0.20542
       7 -> 16        -0.33557
       8 -> 17         0.47382
       9 -> 18        -0.23895
      10 -> 22         0.10427
      11 -> 23         0.15017

 Excited State  50:      Singlet-A"    12.5358 eV   98.90 nm  f=0.0006  <S**2>=0.000
      11 -> 24         0.69537

 Excited State  51:      Singlet-A"    12.5499 eV   98.79 nm  f=0.0000  <S**2>=0.000
       8 -> 18         0.69100

 Excited State  52:      Singlet-A'    12.6391 eV   98.10 nm  f=0.1016  <S**2>=0.000
       7 -> 15         0.32887
       7 -> 16         0.23191
       8 -> 17         0.31516
      10 -> 22         0.35059
      11 -> 23        -0.24659
      12 -> 29         0.10094

 Excited State  53:      Singlet-A'    12.6660 eV   97.89 nm  f=0.0434  <S**2>=0.000
       8 -> 17        -0.32032
       9 -> 18        -0.24400
      10 -> 22         0.50688
      12 -> 29        -0.15148

 Excited State  54:      Singlet-A'    12.8632 eV   96.39 nm  f=0.0575  <S**2>=0.000
       8 -> 19         0.49621
       9 -> 18         0.29632
      10 -> 22         0.14687
      10 -> 23        -0.29874

 Excited State  55:      Singlet-A"    12.8766 eV   96.29 nm  f=0.0544  <S**2>=0.000
       6 -> 13         0.17996
       9 -> 19         0.62820
       9 -> 20        -0.12157
      10 -> 21        -0.16258

 Excited State  56:      Singlet-A'    12.9597 eV   95.67 nm  f=0.0591  <S**2>=0.000
       8 -> 20        -0.11328
       9 -> 18         0.23722
      10 -> 23         0.52351
      11 -> 25         0.18915
      12 -> 29         0.27842

 Excited State  57:      Singlet-A'    13.0187 eV   95.24 nm  f=0.0066  <S**2>=0.000
       7 -> 17        -0.14979
       8 -> 19         0.42703
       8 -> 20         0.21877
       9 -> 18        -0.15456
      10 -> 22        -0.18952
      10 -> 23         0.27540
      12 -> 29        -0.24187

 Excited State  58:      Singlet-A'    13.1538 eV   94.26 nm  f=0.0211  <S**2>=0.000
       8 -> 19        -0.15487
      11 -> 25         0.61738
      12 -> 29        -0.20048
      12 -> 31        -0.10458

 Excited State  59:      Singlet-A"    13.1582 eV   94.23 nm  f=0.0031  <S**2>=0.000
       6 -> 13         0.24676
       9 -> 20         0.64551
      10 -> 24         0.10216

 Excited State  60:      Singlet-A"    13.2166 eV   93.81 nm  f=0.0013  <S**2>=0.000
       6 -> 13         0.21777
       9 -> 20        -0.19031
      10 -> 24         0.63269

 Excited State  61:      Singlet-A'    13.2203 eV   93.78 nm  f=0.0561  <S**2>=0.000
       8 -> 17        -0.10161
       8 -> 20         0.16207
       9 -> 18        -0.25821
      10 -> 23        -0.14498
      10 -> 25        -0.10261
      11 -> 25         0.20919
      12 -> 29         0.47158

 Excited State  62:      Singlet-A"    13.3505 eV   92.87 nm  f=0.0104  <S**2>=0.000
      10 -> 24        -0.14003
      12 -> 30         0.68203

 Excited State  63:      Singlet-A'    13.4627 eV   92.09 nm  f=0.0022  <S**2>=0.000
       7 -> 17         0.33427
       8 -> 20         0.55613
      10 -> 25         0.15044

 Excited State  64:      Singlet-A"    13.5088 eV   91.78 nm  f=0.0643  <S**2>=0.000
       6 -> 13         0.46033
       7 -> 18         0.38733
       9 -> 19        -0.11721
       9 -> 20        -0.12810
      10 -> 24        -0.22521
      11 -> 26        -0.10256
      12 -> 30        -0.11254

 Excited State  65:      Singlet-A'    13.6065 eV   91.12 nm  f=0.0248  <S**2>=0.000
       7 -> 17         0.25382
       9 -> 21        -0.31499
      12 -> 31         0.55218

 Excited State  66:      Singlet-A"    13.6592 eV   90.77 nm  f=0.0000  <S**2>=0.000
       8 -> 21         0.63361
       9 -> 22        -0.30971

 Excited State  67:      Singlet-A'    13.6726 eV   90.68 nm  f=0.0028  <S**2>=0.000
       7 -> 17        -0.26639
       7 -> 19         0.10918
       8 -> 20         0.14022
       9 -> 21         0.43364
      10 -> 25         0.14465
      12 -> 31         0.39301

 Excited State  68:      Singlet-A'    13.7108 eV   90.43 nm  f=0.0033  <S**2>=0.000
       6 -> 14         0.54173
       7 -> 17         0.26235
       8 -> 22         0.12636
       9 -> 21         0.25983
      10 -> 25        -0.14660

 Excited State  69:      Singlet-A"    13.7284 eV   90.31 nm  f=0.0010  <S**2>=0.000
       6 -> 13        -0.11127
       7 -> 18         0.16364
       8 -> 21         0.28297
       9 -> 22         0.58822
      11 -> 26         0.15493

 Excited State  70:      Singlet-A"    13.8103 eV   89.78 nm  f=0.1259  <S**2>=0.000
       6 -> 13        -0.20695
       7 -> 18         0.51945
       8 -> 21        -0.10443
       9 -> 19         0.10948
       9 -> 22        -0.17488
       9 -> 23         0.25011
      11 -> 26         0.15161

 Excited State  71:      Singlet-A'    13.8366 eV   89.61 nm  f=0.0097  <S**2>=0.000
       6 -> 14         0.26358
       8 -> 22        -0.24206
       9 -> 21        -0.11762
      10 -> 25         0.54958

 Excited State  72:      Singlet-A"    13.8961 eV   89.22 nm  f=0.0513  <S**2>=0.000
       6 -> 13         0.15580
      11 -> 26         0.65661

 Excited State  73:      Singlet-A'    13.9674 eV   88.77 nm  f=0.0086  <S**2>=0.000
       6 -> 14        -0.18306
       6 -> 16        -0.10207
       7 -> 17         0.18844
       7 -> 19        -0.31205
       8 -> 20        -0.12893
       8 -> 22         0.37691
       9 -> 18        -0.10318
       9 -> 21         0.14427
      10 -> 25         0.25321
      11 -> 27         0.15584
      11 -> 28         0.10116

 Excited State  74:      Singlet-A"    14.0219 eV   88.42 nm  f=0.0519  <S**2>=0.000
       6 -> 13         0.10048
       7 -> 18        -0.11827
       9 -> 23         0.56049
      12 -> 32         0.37290

 Excited State  75:      Singlet-A'    14.0587 eV   88.19 nm  f=0.1142  <S**2>=0.000
       6 -> 14         0.21138
       6 -> 15        -0.12476
       6 -> 16         0.17327
       7 -> 17        -0.25358
       8 -> 20         0.11959
       8 -> 22         0.38457
       8 -> 23         0.11767
       9 -> 21        -0.23103
      11 -> 27         0.26506

 Excited State  76:      Singlet-A"    14.1155 eV   87.84 nm  f=0.0503  <S**2>=0.000
       7 -> 18         0.12478
       9 -> 23        -0.31989
      12 -> 32         0.58802

 Excited State  77:      Singlet-A'    14.2218 eV   87.18 nm  f=0.0288  <S**2>=0.000
       6 -> 15         0.10168
       7 -> 19         0.17653
       8 -> 23         0.62900
       9 -> 24         0.12949
      11 -> 28         0.12698

 Excited State  78:      Singlet-A'    14.2595 eV   86.95 nm  f=0.0074  <S**2>=0.000
       6 -> 15         0.14892
       6 -> 16        -0.24158
       7 -> 19         0.46901
       8 -> 23        -0.19480
       9 -> 24         0.11555
      10 -> 25         0.14320
      11 -> 27         0.27005

 Excited State  79:      Singlet-A'    14.3721 eV   86.27 nm  f=0.0268  <S**2>=0.000
       6 -> 15        -0.10457
       7 -> 20        -0.15386
       9 -> 24         0.62961
      11 -> 27        -0.19205

 Excited State  80:      Singlet-A'    14.4658 eV   85.71 nm  f=0.2026  <S**2>=0.000
       6 -> 15         0.42223
       7 -> 20        -0.26565
       8 -> 22         0.21046
       9 -> 24        -0.13795
      10 -> 27         0.16568
      11 -> 27        -0.32139

 Excited State  81:      Singlet-A"    14.4788 eV   85.63 nm  f=0.0116  <S**2>=0.000
      12 -> 33         0.69628

 Excited State  82:      Singlet-A'    14.4832 eV   85.61 nm  f=0.1549  <S**2>=0.000
       6 -> 15         0.31464
       6 -> 16         0.26193
       7 -> 19        -0.17993
       7 -> 20        -0.19800
       7 -> 23         0.10068
       8 -> 22        -0.17022
       9 -> 24         0.10410
      10 -> 28         0.14897
      11 -> 27         0.27601
      11 -> 28         0.27193

 Excited State  83:      Singlet-A"    14.5087 eV   85.46 nm  f=0.0007  <S**2>=0.000
       8 -> 24         0.47319
      10 -> 26         0.51686

 Excited State  84:      Singlet-A"    14.5292 eV   85.33 nm  f=0.0216  <S**2>=0.000
       8 -> 24         0.51921
      10 -> 26        -0.46677

 Excited State  85:      Singlet-A'    14.5729 eV   85.08 nm  f=0.1636  <S**2>=0.000
       6 -> 15         0.24742
       6 -> 16        -0.12476
       7 -> 20         0.52918
       8 -> 23        -0.12050
       9 -> 24         0.10711
      11 -> 28         0.23368

 Excited State  86:      Singlet-A"    14.6736 eV   84.49 nm  f=0.0124  <S**2>=0.000
      11 -> 29         0.12107
      12 -> 34         0.68698

 Excited State  87:      Singlet-A'    14.7850 eV   83.86 nm  f=0.0657  <S**2>=0.000
       6 -> 15         0.11831
      10 -> 27         0.44462
      11 -> 27         0.18546
      11 -> 28        -0.34241
      12 -> 35         0.23255

 Excited State  88:      Singlet-A"    14.7872 eV   83.85 nm  f=0.0111  <S**2>=0.000
      11 -> 29         0.69038
      12 -> 34        -0.11700

 Excited State  89:      Singlet-A"    14.8405 eV   83.54 nm  f=0.0028  <S**2>=0.000
       7 -> 21         0.56076
       9 -> 25         0.40802

 Excited State  90:      Singlet-A'    14.8443 eV   83.52 nm  f=0.0009  <S**2>=0.000
       6 -> 16         0.41797
       7 -> 20         0.19080
       7 -> 22        -0.10536
       8 -> 25         0.25169
      10 -> 25         0.10924
      10 -> 27        -0.17188
      10 -> 28        -0.14576
      11 -> 28        -0.14544
      12 -> 35        -0.18985

 Excited State  91:      Singlet-A'    14.9114 eV   83.15 nm  f=0.0849  <S**2>=0.000
       6 -> 15        -0.19360
       6 -> 16         0.18416
       7 -> 19         0.12985
       7 -> 22         0.16099
       8 -> 25         0.10298
      10 -> 27         0.40923
      10 -> 28         0.11826
      11 -> 28         0.31779

 Excited State  92:      Singlet-A'    14.9705 eV   82.82 nm  f=0.0231  <S**2>=0.000
       8 -> 25         0.18319
      10 -> 27        -0.19473
      12 -> 35         0.60682

 Excited State  93:      Singlet-A"    15.0174 eV   82.56 nm  f=0.0487  <S**2>=0.000
       7 -> 21        -0.29264
       9 -> 25         0.35731
      12 -> 36         0.50626

 Excited State  94:      Singlet-A'    15.1061 eV   82.08 nm  f=0.0108  <S**2>=0.000
       6 -> 16        -0.12051
       7 -> 22         0.48009
       8 -> 25         0.34123
      10 -> 28        -0.29808

 Excited State  95:      Singlet-A"    15.1187 eV   82.01 nm  f=0.0755  <S**2>=0.000
       7 -> 21         0.22976
       9 -> 25        -0.39030
      10 -> 29         0.10828
      12 -> 36         0.48034

 Excited State  96:      Singlet-A'    15.1658 eV   81.75 nm  f=0.0193  <S**2>=0.000
       6 -> 16        -0.15765
       7 -> 22        -0.33118
       7 -> 23        -0.12637
       8 -> 25         0.49092
      10 -> 28         0.16673
      11 -> 28         0.10037

 Excited State  97:      Singlet-A'    15.3948 eV   80.54 nm  f=0.0243  <S**2>=0.000
       7 -> 22        -0.21736
       7 -> 23         0.50725
      10 -> 28        -0.29717
      10 -> 30        -0.10497
      11 -> 28         0.13953

 Excited State  98:      Singlet-A'    15.4399 eV   80.30 nm  f=0.0107  <S**2>=0.000
      11 -> 30         0.67030

 Excited State  99:      Singlet-A"    15.5016 eV   79.98 nm  f=0.0070  <S**2>=0.000
      10 -> 29         0.68935

 Excited State 100:      Singlet-A'    15.5689 eV   79.64 nm  f=0.1279  <S**2>=0.000
       7 -> 22        -0.17144
       7 -> 23        -0.33092
       9 -> 26         0.44394
      10 -> 28        -0.30568

 Excited State 101:      Singlet-A"    15.6589 eV   79.18 nm  f=0.0125  <S**2>=0.000
       6 -> 18         0.15833
       7 -> 24         0.45271
      11 -> 31         0.50307

 Excited State 102:      Singlet-A"    15.6806 eV   79.07 nm  f=0.0376  <S**2>=0.000
       6 -> 18        -0.36374
       7 -> 24         0.46791
       8 -> 26        -0.10447
      11 -> 31        -0.32362
      12 -> 37         0.16434

 Excited State 103:      Singlet-A'    15.6845 eV   79.05 nm  f=0.0844  <S**2>=0.000
       6 -> 17         0.63016
       9 -> 26        -0.14859
      10 -> 28        -0.10924
      12 -> 38        -0.19296

 Excited State 104:      Singlet-A'    15.7315 eV   78.81 nm  f=0.2301  <S**2>=0.000
       6 -> 17         0.13724
       7 -> 23         0.22038
       8 -> 27         0.12065
       9 -> 26         0.50401
      10 -> 28         0.25212
      12 -> 38        -0.15952

 Excited State 105:      Singlet-A"    15.7399 eV   78.77 nm  f=0.0063  <S**2>=0.000
       6 -> 18         0.53707
       8 -> 26        -0.29834
      11 -> 31        -0.25748
      12 -> 37         0.20342

 Excited State 106:      Singlet-A"    15.7479 eV   78.73 nm  f=0.0007  <S**2>=0.000
       7 -> 24        -0.15481
       8 -> 26         0.15558
       9 -> 27        -0.28973
      12 -> 37         0.50483
      12 -> 39         0.31062

 Excited State 107:      Singlet-A"    15.7888 eV   78.53 nm  f=0.0068  <S**2>=0.000
       8 -> 26        -0.22192
       9 -> 27         0.13893
      12 -> 37        -0.22763
      12 -> 39         0.60772

 Excited State 108:      Singlet-A'    15.8198 eV   78.37 nm  f=0.0004  <S**2>=0.000
       6 -> 17         0.19184
      12 -> 38         0.63535

 Excited State 109:      Singlet-A"    15.8495 eV   78.23 nm  f=0.0285  <S**2>=0.000
       6 -> 18        -0.11724
       7 -> 24        -0.14942
       8 -> 26        -0.20736
       9 -> 27         0.52526
      11 -> 31         0.10906
      12 -> 37         0.32020

 Excited State 110:      Singlet-A'    15.9373 eV   77.80 nm  f=0.0131  <S**2>=0.000
       8 -> 27        -0.13642
      12 -> 40         0.66731

 Excited State 111:      Singlet-A"    15.9628 eV   77.67 nm  f=0.2171  <S**2>=0.000
       6 -> 18         0.17234

 The electronic state is 1-A'.
 Alpha  occ. eigenvalues --   -9.92526  -9.92096  -9.91162  -0.70185  -0.60803
 Alpha  occ. eigenvalues --   -0.48837  -0.41440  -0.37235  -0.36572  -0.32552
 Alpha  occ. eigenvalues --   -0.30074  -0.22500
 Alpha virt. eigenvalues --   -0.01808   0.01255   0.03936   0.04090   0.08318
 Alpha virt. eigenvalues --    0.08813   0.10137   0.11828   0.12999   0.13714
 Alpha virt. eigenvalues --    0.14758   0.16112   0.18032   0.20873   0.21575

 Mulliken charges:
               1
     1  C    1.004458
     2  C   -0.229634
     3  C    0.251595
     4  H   -0.106369
     5  H   -0.092091
     6  H   -0.106369
     7  H   -0.357834
     8  H   -0.204762
     9  H   -0.158993
 Sum of Mulliken charges =   0.00000

 Dipole moment (field-independent basis, Debye):
    X=             -0.4102    Y=             -0.0425    Z=              0.0000  Tot=              0.4124
 Quadrupole moment (field-independent basis, Debye-Ang):
   XX=            -19.8193   YY=            -19.6519   ZZ=            -21.8540
   XY=             -0.2139   XZ=             -0.0000   YZ=             -0.0000

 Normal termination of Gaussian 16 at Mon Mar 21 20:07:50 2022.
