 Gaussian 16, Revision C.01,
 Gaussian 16:  EM64L-G16RevC.01  3-Jul-2019

 --------------------------------------------------------------------
 #P TD(Nstates=10000) blyp/Gen SCF(maxcycles=100) Int(Grid=ultrafine)
 --------------------------------------------------------------------

 ---------------------
 xGDB7_00001_tier4.com
 ---------------------
 Symbolic Z-matrix:
 Charge =  0 Multiplicity = 1

                         Standard orientation:
 ---------------------------------------------------------------------
 Center     Atomic      Atomic             Coordinates (Angstroms)
 Number     Number       Type             X           Y           Z
 ---------------------------------------------------------------------
      1          7           0        1.106441    0.142513   -0.090982
      2          7           0       -0.080753   -0.512520    0.006066
      3          6           0       -1.148696    0.167456    0.008166
      4          1           0        1.854749   -0.409916    0.291533
      5          1           0        1.109676    1.100453    0.242713
      6          1           0       -2.089851   -0.366199    0.035249
      7          1           0       -1.162209    1.260974   -0.024080
 ---------------------------------------------------------------------

 SCF Done:  E(RB-LYP) =  -149.814745378     A.U. after   14 cycles

 Excitation energies and oscillator strengths:

 Excited State   1:      Singlet-A      5.5938 eV  221.65 nm  f=0.0569  <S**2>=0.000
      11 -> 13         0.42239
      12 -> 13         0.46394
      12 -> 14         0.31123
 This state for optimization and/or second-order correction.
 Total Energy, E(TD-HF/TD-DFT) =  -149.609178077
 Copying the excited state density for this state as the 1-particle RhoCI density.

 Excited State   2:      Singlet-A      5.6755 eV  218.46 nm  f=0.0187  <S**2>=0.000
      11 -> 13         0.53388
      12 -> 13        -0.20658
      12 -> 14        -0.41146

 Excited State   3:      Singlet-A      5.9610 eV  207.99 nm  f=0.1191  <S**2>=0.000
      11 -> 13         0.18351
      12 -> 13        -0.46043
      12 -> 14         0.47904

 Excited State   4:      Singlet-A      6.5617 eV  188.95 nm  f=0.0430  <S**2>=0.000
      11 -> 14         0.70095

 Excited State   5:      Singlet-A      6.5898 eV  188.15 nm  f=0.0250  <S**2>=0.000
      12 -> 15         0.70370

 Excited State   6:      Singlet-A      7.2560 eV  170.87 nm  f=0.0059  <S**2>=0.000
      11 -> 15        -0.33726
      12 -> 16         0.62032

 Excited State   7:      Singlet-A      7.2968 eV  169.92 nm  f=0.0356  <S**2>=0.000
      11 -> 15         0.61407
      12 -> 16         0.33252

 Excited State   8:      Singlet-A      8.0441 eV  154.13 nm  f=0.0978  <S**2>=0.000
      11 -> 16         0.69630

 Excited State   9:      Singlet-A      8.1096 eV  152.88 nm  f=0.0110  <S**2>=0.000
      12 -> 17         0.70149

 Excited State  10:      Singlet-A      8.3806 eV  147.94 nm  f=0.0056  <S**2>=0.000
      12 -> 18         0.69974

 Excited State  11:      Singlet-A      8.8549 eV  140.02 nm  f=0.0061  <S**2>=0.000
      11 -> 17         0.18683
      12 -> 19         0.66665

 Excited State  12:      Singlet-A      8.8901 eV  139.46 nm  f=0.0641  <S**2>=0.000
      11 -> 17         0.66402
      12 -> 19        -0.19049

 Excited State  13:      Singlet-A      9.1010 eV  136.23 nm  f=0.0505  <S**2>=0.000
      11 -> 18         0.70025

 Excited State  14:      Singlet-A      9.2060 eV  134.68 nm  f=0.0208  <S**2>=0.000
       9 -> 13         0.62123
      10 -> 13        -0.29683

 Excited State  15:      Singlet-A      9.5281 eV  130.12 nm  f=0.0207  <S**2>=0.000
       9 -> 13         0.12238
      10 -> 13         0.15368
      10 -> 14         0.20393
      11 -> 19         0.63895

 Excited State  16:      Singlet-A      9.6016 eV  129.13 nm  f=0.0443  <S**2>=0.000
       9 -> 13         0.19060
      10 -> 13         0.23388
      10 -> 14         0.55553
      11 -> 19        -0.27077

 Excited State  17:      Singlet-A      9.9036 eV  125.19 nm  f=0.0389  <S**2>=0.000
       9 -> 13         0.19515
      10 -> 13         0.37717
      10 -> 14        -0.35159
      12 -> 20         0.20645
      12 -> 21         0.33273

 Excited State  18:      Singlet-A      9.9941 eV  124.06 nm  f=0.0227  <S**2>=0.000
      10 -> 13        -0.18352
      12 -> 20        -0.29435
      12 -> 21         0.58697

 Excited State  19:      Singlet-A     10.1391 eV  122.28 nm  f=0.0216  <S**2>=0.000
       9 -> 14        -0.24520
      10 -> 13        -0.20429
      12 -> 20         0.54352
      12 -> 21         0.15537

 Excited State  20:      Singlet-A     10.3366 eV  119.95 nm  f=0.0084  <S**2>=0.000
       9 -> 14         0.28916
      12 -> 22         0.62876

 Excited State  21:      Singlet-A     10.3837 eV  119.40 nm  f=0.0292  <S**2>=0.000
      11 -> 20         0.68450

 Excited State  22:      Singlet-A     10.4462 eV  118.69 nm  f=0.0825  <S**2>=0.000
       9 -> 14         0.40885
      10 -> 15         0.49495
      12 -> 22        -0.23874

 Excited State  23:      Singlet-A     10.4974 eV  118.11 nm  f=0.0728  <S**2>=0.000
       9 -> 14        -0.38362
      10 -> 13         0.14717
      10 -> 15         0.48178
      11 -> 21         0.12324
      12 -> 22         0.19639

 Excited State  24:      Singlet-A     10.7021 eV  115.85 nm  f=0.0482  <S**2>=0.000
       9 -> 14         0.10511
      11 -> 21         0.66123
      11 -> 22        -0.10053
      12 -> 23         0.12639

 Excited State  25:      Singlet-A     10.9798 eV  112.92 nm  f=0.0083  <S**2>=0.000
       9 -> 15        -0.12998
      11 -> 22         0.37088
      12 -> 23         0.54673
      12 -> 24        -0.13480

 Excited State  26:      Singlet-A     11.0531 eV  112.17 nm  f=0.0576  <S**2>=0.000
      11 -> 21         0.10725
      11 -> 22         0.53854
      12 -> 23        -0.22343
      12 -> 24         0.32897

 Excited State  27:      Singlet-A     11.0981 eV  111.72 nm  f=0.0252  <S**2>=0.000
       9 -> 15        -0.15200
      10 -> 16        -0.20346
      11 -> 22        -0.19268
      12 -> 23         0.21893
      12 -> 24         0.58160

 Excited State  28:      Singlet-A     11.1617 eV  111.08 nm  f=0.0374  <S**2>=0.000
      10 -> 16         0.66587
      11 -> 22        -0.11837
      12 -> 24         0.14180

 Excited State  29:      Singlet-A     11.2449 eV  110.26 nm  f=0.0541  <S**2>=0.000
       9 -> 15         0.66291
      12 -> 23         0.18055

 Excited State  30:      Singlet-A     11.4583 eV  108.21 nm  f=0.0060  <S**2>=0.000
       8 -> 13        -0.12174
      11 -> 23         0.68116

 Excited State  31:      Singlet-A     11.5587 eV  107.26 nm  f=0.0068  <S**2>=0.000
       8 -> 13         0.58012
      12 -> 25         0.36051

 Excited State  32:      Singlet-A     11.7175 eV  105.81 nm  f=0.0833  <S**2>=0.000
       8 -> 13        -0.31606
      11 -> 23        -0.11684
      11 -> 24         0.12938
      12 -> 25         0.56801

 Excited State  33:      Singlet-A     11.9114 eV  104.09 nm  f=0.0940  <S**2>=0.000
       9 -> 16         0.41807
      11 -> 24        -0.36414
      11 -> 25        -0.12056
      12 -> 26        -0.37606

 Excited State  34:      Singlet-A     11.9395 eV  103.84 nm  f=0.0007  <S**2>=0.000
       9 -> 16         0.44941
      10 -> 17        -0.23140
      11 -> 24         0.39576
      11 -> 25         0.16747

 Excited State  35:      Singlet-A     11.9994 eV  103.33 nm  f=0.0295  <S**2>=0.000
       9 -> 16         0.28594
      10 -> 17         0.45797
      11 -> 24        -0.15363
      12 -> 26         0.39673

 Excited State  36:      Singlet-A     12.0546 eV  102.85 nm  f=0.0272  <S**2>=0.000
       7 -> 13        -0.11004
      10 -> 17         0.45023
      10 -> 18        -0.10262
      11 -> 24         0.25154
      11 -> 25         0.19138
      12 -> 26        -0.36478
      12 -> 27         0.14251

 Excited State  37:      Singlet-A     12.1484 eV  102.06 nm  f=0.0105  <S**2>=0.000
       7 -> 13         0.67082
      12 -> 26        -0.12056

 Excited State  38:      Singlet-A     12.3091 eV  100.73 nm  f=0.0200  <S**2>=0.000
      10 -> 18         0.15746
      12 -> 27         0.65499

 Excited State  39:      Singlet-A     12.3335 eV  100.53 nm  f=0.0248  <S**2>=0.000
      10 -> 18         0.65231
      10 -> 19        -0.15656
      12 -> 27        -0.12403

 Excited State  40:      Singlet-A     12.5201 eV   99.03 nm  f=0.0092  <S**2>=0.000
       8 -> 14         0.38898
      11 -> 24        -0.15174
      11 -> 25         0.51312

 Excited State  41:      Singlet-A     12.6515 eV   98.00 nm  f=0.0112  <S**2>=0.000
      11 -> 26         0.61251
      11 -> 27        -0.31748

 Excited State  42:      Singlet-A     12.7222 eV   97.45 nm  f=0.0038  <S**2>=0.000
       8 -> 14         0.53181
       9 -> 17        -0.11739
      10 -> 19        -0.10210
      11 -> 24         0.14519
      11 -> 25        -0.32173

 Excited State  43:      Singlet-A     12.7979 eV   96.88 nm  f=0.1059  <S**2>=0.000
       9 -> 17        -0.36317
       9 -> 18        -0.16474
      10 -> 19         0.54500

 Excited State  44:      Singlet-A     12.8446 eV   96.53 nm  f=0.0436  <S**2>=0.000
       8 -> 14         0.13152
       8 -> 15         0.11621
       9 -> 17         0.52963
      10 -> 19         0.35857

 Excited State  45:      Singlet-A     13.0566 eV   94.96 nm  f=0.0140  <S**2>=0.000
       7 -> 14        -0.12558
       8 -> 15        -0.18534
       9 -> 17        -0.10710
       9 -> 18         0.62515
       9 -> 19         0.12612

 Excited State  46:      Singlet-A     13.1237 eV   94.47 nm  f=0.0294  <S**2>=0.000
       7 -> 14        -0.11736
       8 -> 15        -0.14305
       9 -> 18        -0.11679
      11 -> 26         0.27625
      11 -> 27         0.58251

 Excited State  47:      Singlet-A     13.3478 eV   92.89 nm  f=0.1076  <S**2>=0.000
       7 -> 14         0.63083
       8 -> 15        -0.24863

 Excited State  48:      Singlet-A     13.5109 eV   91.77 nm  f=0.0226  <S**2>=0.000
       7 -> 14         0.14113
       8 -> 15         0.50727
       8 -> 16         0.11233
       9 -> 19         0.29892
      10 -> 20        -0.13731
      11 -> 27         0.13503
      12 -> 28        -0.17899

 Excited State  49:      Singlet-A     13.6382 eV   90.91 nm  f=0.0883  <S**2>=0.000
       7 -> 14        -0.13548
       8 -> 15        -0.12510
       9 -> 19         0.51018
      10 -> 20         0.36462

 Excited State  50:      Singlet-A     13.6699 eV   90.70 nm  f=0.0231  <S**2>=0.000
      12 -> 28         0.66461

 Excited State  51:      Singlet-A     13.7920 eV   89.90 nm  f=0.0400  <S**2>=0.000
       8 -> 15         0.12601
       9 -> 19        -0.23480
      10 -> 20         0.36002
      12 -> 29         0.47524

 Excited State  52:      Singlet-A     13.8607 eV   89.45 nm  f=0.0222  <S**2>=0.000
       7 -> 16        -0.11649
       8 -> 15         0.12996
      10 -> 20         0.31478
      10 -> 21         0.47696
      12 -> 29        -0.31544

 Excited State  53:      Singlet-A     13.9036 eV   89.17 nm  f=0.0079  <S**2>=0.000
       8 -> 16        -0.12652
      10 -> 20        -0.18028
      10 -> 21         0.49009
      10 -> 22         0.13205
      12 -> 29         0.37831

 Excited State  54:      Singlet-A     14.0540 eV   88.22 nm  f=0.0314  <S**2>=0.000
       8 -> 16         0.48805
      10 -> 22         0.13424
      12 -> 30         0.44340

 Excited State  55:      Singlet-A     14.0789 eV   88.06 nm  f=0.0264  <S**2>=0.000
       7 -> 15        -0.15846
       8 -> 16        -0.43754
      12 -> 30         0.50119

 Excited State  56:      Singlet-A     14.1314 eV   87.74 nm  f=0.0396  <S**2>=0.000
       7 -> 15         0.64586
       9 -> 20         0.13608
      10 -> 22         0.10187
      12 -> 30         0.11876

 Excited State  57:      Singlet-A     14.2746 eV   86.86 nm  f=0.0189  <S**2>=0.000
       7 -> 15        -0.12146
       9 -> 20         0.66311
      11 -> 28         0.10115

 Excited State  58:      Singlet-A     14.3093 eV   86.65 nm  f=0.0214  <S**2>=0.000
      10 -> 22         0.56507
      11 -> 28         0.34662

 Excited State  59:      Singlet-A     14.3918 eV   86.15 nm  f=0.0926  <S**2>=0.000
       6 -> 13         0.17194
       7 -> 16         0.10962
      10 -> 22        -0.27965
      11 -> 28         0.56450
      12 -> 30         0.10953

 Excited State  60:      Singlet-A     14.4790 eV   85.63 nm  f=0.0070  <S**2>=0.000
       6 -> 13         0.37277
       7 -> 16        -0.11116
       9 -> 21        -0.31963
      11 -> 29         0.43043

 Excited State  61:      Singlet-A     14.5408 eV   85.27 nm  f=0.0284  <S**2>=0.000
       6 -> 13        -0.32163
       7 -> 16         0.17122
       9 -> 21         0.12299
       9 -> 22        -0.14908
      11 -> 28         0.11533
      11 -> 29         0.51366

 Excited State  62:      Singlet-A     14.6372 eV   84.70 nm  f=0.0233  <S**2>=0.000
       6 -> 13         0.28492
       9 -> 21         0.51727
      10 -> 23         0.15268
      11 -> 30         0.13910
      12 -> 31         0.23124

 Excited State  63:      Singlet-A     14.6698 eV   84.52 nm  f=0.0356  <S**2>=0.000
       9 -> 21        -0.20150
      11 -> 30        -0.11541
      12 -> 31         0.65257

 Excited State  64:      Singlet-A     14.7822 eV   83.87 nm  f=0.0015  <S**2>=0.000
       8 -> 17        -0.27572
      10 -> 23        -0.42482
      11 -> 30         0.43559

 Excited State  65:      Singlet-A     14.8600 eV   83.44 nm  f=0.0612  <S**2>=0.000
       8 -> 17        -0.10562
       9 -> 21        -0.16585
       9 -> 22         0.13143
      10 -> 23         0.43299
      10 -> 24        -0.13991
      11 -> 30         0.42482

 Excited State  66:      Singlet-A     14.9402 eV   82.99 nm  f=0.0319  <S**2>=0.000
       6 -> 14        -0.25183
       7 -> 16         0.25306
       8 -> 17         0.24407
       9 -> 22         0.50465
      12 -> 32         0.12435

 Excited State  67:      Singlet-A     15.0077 eV   82.61 nm  f=0.0210  <S**2>=0.000
       6 -> 14         0.15445
       7 -> 16        -0.22958
       7 -> 17         0.11239
       8 -> 17         0.19033
      12 -> 32         0.58206

 Excited State  68:      Singlet-A     15.0419 eV   82.43 nm  f=0.0839  <S**2>=0.000
       6 -> 13        -0.11617
       7 -> 16        -0.13861
       8 -> 17         0.12823
      10 -> 24         0.60937
      12 -> 32        -0.14972

 Excited State  69:      Singlet-A     15.0755 eV   82.24 nm  f=0.0034  <S**2>=0.000
       6 -> 14        -0.20469
       7 -> 16         0.30915
       7 -> 18         0.11360
       8 -> 17        -0.10239
       8 -> 18         0.13975
       9 -> 22        -0.25008
      10 -> 23         0.15542
      10 -> 24         0.22481
      12 -> 32         0.26882
      12 -> 33         0.21363

 Excited State  70:      Singlet-A     15.1853 eV   81.65 nm  f=0.1164  <S**2>=0.000
       6 -> 13        -0.10583
       8 -> 17        -0.23252
       8 -> 18        -0.27423
       9 -> 22         0.22065
       9 -> 23         0.13399
      11 -> 30        -0.10880
      12 -> 33         0.47243

 Excited State  71:      Singlet-A     15.1915 eV   81.61 nm  f=0.1511  <S**2>=0.000
       8 -> 17         0.37184
       9 -> 22        -0.12694
      11 -> 30         0.16944
      12 -> 32        -0.16694
      12 -> 33         0.42621

 Excited State  72:      Singlet-A     15.2909 eV   81.08 nm  f=0.0546  <S**2>=0.000
       6 -> 14        -0.22802
       7 -> 17         0.15284
       8 -> 18        -0.31088
       9 -> 23        -0.16942
      11 -> 31         0.51353

 Excited State  73:      Singlet-A     15.3058 eV   81.00 nm  f=0.0235  <S**2>=0.000
       6 -> 14         0.27683
       8 -> 18         0.32668
       9 -> 23         0.28253
      11 -> 31         0.45818

 Excited State  74:      Singlet-A     15.3724 eV   80.65 nm  f=0.1090  <S**2>=0.000
       6 -> 13         0.12071
       7 -> 18         0.10154
       8 -> 18        -0.28237
       9 -> 22        -0.13064
       9 -> 23         0.53636
      12 -> 33        -0.14634

 Excited State  75:      Singlet-A     15.5508 eV   79.73 nm  f=0.0266  <S**2>=0.000
       6 -> 14        -0.16126
       8 -> 18         0.13161
      10 -> 25         0.57748
      11 -> 32        -0.23726
      12 -> 35        -0.11796

 Excited State  76:      Singlet-A     15.5772 eV   79.59 nm  f=0.0641  <S**2>=0.000
       6 -> 14         0.26765
       7 -> 16         0.14719
       7 -> 17        -0.10456
       7 -> 18         0.14621
       8 -> 18        -0.20470
       8 -> 19         0.12989
       9 -> 23        -0.14070
      10 -> 25         0.34394
      11 -> 32         0.32739

 Excited State  77:      Singlet-A     15.6070 eV   79.44 nm  f=0.0084  <S**2>=0.000
       8 -> 19         0.65407
       9 -> 24        -0.15299

 Excited State  78:      Singlet-A     15.6797 eV   79.07 nm  f=0.0088  <S**2>=0.000
      10 -> 26         0.10702
      12 -> 34         0.66603
      12 -> 35        -0.15509

 Excited State  79:      Singlet-A     15.7078 eV   78.93 nm  f=0.0471  <S**2>=0.000
       8 -> 19         0.14289
       9 -> 24         0.64366
      11 -> 32        -0.14827

 Excited State  80:      Singlet-A     15.7575 eV   78.68 nm  f=0.0091  <S**2>=0.000
       6 -> 14        -0.10027
       6 -> 15         0.20371
       7 -> 17         0.33350
       7 -> 18        -0.15400
       9 -> 24         0.13008
      11 -> 32         0.44763
      12 -> 35        -0.10488
      12 -> 36         0.10527

 Excited State  81:      Singlet-A     15.8076 eV   78.43 nm  f=0.0246  <S**2>=0.000
       6 -> 14         0.11610
       6 -> 15         0.11201
       7 -> 17         0.37642
       7 -> 18         0.18963
       9 -> 25        -0.10255
      11 -> 32        -0.17719
      11 -> 33         0.44699

 Excited State  82:      Singlet-A     15.8265 eV   78.34 nm  f=0.0483  <S**2>=0.000
       7 -> 17         0.21135
       7 -> 18         0.14930
      10 -> 26         0.49205
      11 -> 32        -0.12111
      11 -> 33        -0.27790
      12 -> 35         0.24192

 Excited State  83:      Singlet-A     15.8747 eV   78.10 nm  f=0.0616  <S**2>=0.000
       6 -> 15         0.10991
       7 -> 17        -0.21329
       7 -> 18        -0.24586
      10 -> 26         0.25966
      11 -> 33         0.37844
      12 -> 35         0.36098

 Excited State  84:      Singlet-A     15.9841 eV   77.57 nm  f=0.0410  <S**2>=0.000
       7 -> 17         0.11924
      10 -> 25         0.12200
      10 -> 26        -0.29250
      10 -> 27         0.30823
      11 -> 33        -0.16306
      12 -> 34         0.11293
      12 -> 35         0.43836

 Excited State  85:      Singlet-A     16.0750 eV   77.13 nm  f=0.0968  <S**2>=0.000
       6 -> 14        -0.14634
       6 -> 16        -0.14743
       7 -> 16        -0.19238
       7 -> 18         0.48827
       9 -> 25         0.14885
      10 -> 27        -0.17682
      11 -> 32         0.13132
      11 -> 35        -0.13369

 Excited State  86:      Singlet-A     16.1135 eV   76.94 nm  f=0.0942  <S**2>=0.000
       6 -> 15         0.55890
       7 -> 19         0.24152
      10 -> 27        -0.11434
      11 -> 33        -0.13619

 Excited State  87:      Singlet-A     16.2005 eV   76.53 nm  f=0.0200  <S**2>=0.000
       7 -> 19        -0.23013
       9 -> 25        -0.34326
      10 -> 26        -0.10188
      10 -> 27        -0.32574
      12 -> 36         0.42607

 Excited State  88:      Singlet-A     16.2642 eV   76.23 nm  f=0.1290  <S**2>=0.000
       6 -> 15        -0.11474
       7 -> 18        -0.11565
       7 -> 19         0.26398
       9 -> 25         0.43611
       9 -> 26         0.11004
      10 -> 27        -0.12257
      12 -> 36         0.37317

 Excited State  89:      Singlet-A     16.3512 eV   75.83 nm  f=0.0521  <S**2>=0.000
       6 -> 15         0.10877
       6 -> 16        -0.14505
       7 -> 19        -0.10757
       8 -> 20         0.29311
      10 -> 26         0.17489
      10 -> 27         0.40140
      11 -> 34         0.18081
      12 -> 35        -0.11342
      12 -> 36         0.25969

 Excited State  90:      Singlet-A     16.4089 eV   75.56 nm  f=0.0153  <S**2>=0.000
       7 -> 19         0.41966
       8 -> 20         0.26430
       8 -> 21        -0.10857
       9 -> 25        -0.29196
      11 -> 34        -0.15804
      11 -> 35        -0.29829

 Excited State  91:      Singlet-A     16.4644 eV   75.30 nm  f=0.0620  <S**2>=0.000
       7 -> 19        -0.22118
       8 -> 20         0.50132
       8 -> 21         0.17950
       9 -> 25         0.17211
      10 -> 27        -0.15178
      11 -> 35        -0.15568
      12 -> 36        -0.14789

 Excited State  92:      Singlet-A     16.5154 eV   75.07 nm  f=0.0168  <S**2>=0.000
       6 -> 15        -0.11712
       6 -> 16         0.13972
       7 -> 19         0.16254
       8 -> 20         0.17521
       9 -> 26        -0.27280
      11 -> 34         0.46604
      11 -> 35         0.26698

 Excited State  93:      Singlet-A     16.5987 eV   74.70 nm  f=0.0846  <S**2>=0.000
       6 -> 16         0.15836
       8 -> 20         0.11447
       9 -> 26         0.49665
       9 -> 27        -0.16973
      11 -> 35         0.30545
      11 -> 36        -0.12263

 Excited State  94:      Singlet-A     16.6636 eV   74.40 nm  f=0.0594  <S**2>=0.000
       6 -> 16        -0.34673
       8 -> 20         0.17173
       9 -> 26        -0.17056
       9 -> 27         0.15407
      11 -> 34        -0.33119
      11 -> 35         0.37877

 Excited State  95:      Singlet-A     16.8310 eV   73.66 nm  f=0.0037  <S**2>=0.000
       6 -> 16         0.15450
       8 -> 21         0.55430
       9 -> 27         0.34847

 Excited State  96:      Singlet-A     16.8588 eV   73.54 nm  f=0.1295  <S**2>=0.000
       6 -> 16         0.43797
       7 -> 18         0.10092
       7 -> 19        -0.11920
       8 -> 21        -0.27458
       9 -> 27         0.19872
      11 -> 34        -0.17874
      11 -> 36         0.21569

 Excited State  97:      Singlet-A     16.9115 eV   73.31 nm  f=0.0774  <S**2>=0.000
       8 -> 21         0.11848
       9 -> 27        -0.22803
      11 -> 36         0.62850

 Excited State  98:      Singlet-A     17.1200 eV   72.42 nm  f=0.0414  <S**2>=0.000

 The electronic state is 1-A.
 Alpha  occ. eigenvalues --  -14.05550 -14.05090  -9.94310  -0.90368  -0.72341
 Alpha  occ. eigenvalues --   -0.54762  -0.47783  -0.45204  -0.37183  -0.34647
 Alpha  occ. eigenvalues --   -0.22884  -0.20358
 Alpha virt. eigenvalues --   -0.03659   0.00630   0.03660   0.06184   0.09203
 Alpha virt. eigenvalues --    0.10345   0.11860   0.15143   0.16248   0.17587
 Alpha virt. eigenvalues --    0.19239   0.20374   0.22345   0.23199   0.24527

 Mulliken charges:
               1
     1  N    0.315207
     2  N   -0.192669
     3  C    0.868429
     4  H   -0.078122
     5  H   -0.053049
     6  H   -0.557177
     7  H   -0.302618
 Sum of Mulliken charges =  -0.00000

 Dipole moment (field-independent basis, Debye):
    X=              0.5915    Y=              1.5330    Z=              0.9519  Tot=              1.8990
 Quadrupole moment (field-independent basis, Debye-Ang):
   XX=            -15.3955   YY=            -19.1030   ZZ=            -20.6548
   XY=             -0.2465   XZ=              1.7581   YZ=              0.2664

 Normal termination of Gaussian 16 at Mon Mar 21 04:02:00 2022.
