 Gaussian 16, Revision C.01,
 Gaussian 16:  EM64L-G16RevC.01  3-Jul-2019

 --------------------------------------------------------------------
 #P TD(Nstates=10000) blyp/Gen SCF(maxcycles=100) Int(Grid=ultrafine)
 --------------------------------------------------------------------

 ---------------------
 xGDB7_00001_tier4.com
 ---------------------
 Symbolic Z-matrix:
 Charge =  0 Multiplicity = 1

                         Standard orientation:
 ---------------------------------------------------------------------
 Center     Atomic      Atomic             Coordinates (Angstroms)
 Number     Number       Type             X           Y           Z
 ---------------------------------------------------------------------
      1          6           0        0.000000    0.000000    0.761397
      2          6           0       -0.000000   -0.000000   -0.761397
      3          1           0        0.000000    1.017110    1.157248
      4          1           0        0.880843   -0.508555    1.157248
      5          1           0       -0.880843   -0.508555    1.157248
      6          1           0        0.880843    0.508555   -1.157248
      7          1           0       -0.880843    0.508555   -1.157248
      8          1           0       -0.000000   -1.017110   -1.157248
 ---------------------------------------------------------------------

 SCF Done:  E(RB-LYP) =  -79.7096801557     A.U. after    9 cycles

 Excitation energies and oscillator strengths:

 Excited State   1:      Singlet-EG     8.3500 eV  148.48 nm  f=0.0000  <S**2>=0.000
       8 -> 10         0.70671
 This state for optimization and/or second-order correction.
 Total Energy, E(TD-HF/TD-DFT) =  -79.4028237752
 Copying the excited state density for this state as the 1-particle RhoCI density.

 Excited State   2:      Singlet-EG     8.3500 eV  148.48 nm  f=0.0000  <S**2>=0.000
       9 -> 10         0.70671

 Excited State   3:      Singlet-A1G    9.1534 eV  135.45 nm  f=0.0000  <S**2>=0.000
       7 -> 10         0.70220

 Excited State   4:      Singlet-EU     9.1953 eV  134.83 nm  f=0.0603  <S**2>=0.000
       9 -> 11         0.70489

 Excited State   5:      Singlet-EU     9.1954 eV  134.83 nm  f=0.0603  <S**2>=0.000
       8 -> 11         0.70489

 Excited State   6:      Singlet-A2U    9.9244 eV  124.93 nm  f=0.1468  <S**2>=0.000
       7 -> 11         0.69550

 Excited State   7:      Singlet-EG    10.1825 eV  121.76 nm  f=0.0000  <S**2>=0.000
       8 -> 13         0.49999
       9 -> 12        -0.49998

 Excited State   8:      Singlet-EG    10.2152 eV  121.37 nm  f=0.0351  <S**2>=0.000
       8 -> 12         0.49457
       9 -> 13        -0.49456

 Excited State   9:      Singlet-EG    10.2152 eV  121.37 nm  f=0.0351  <S**2>=0.000
       8 -> 13         0.49456
       9 -> 12         0.49457

 Excited State  10:      Singlet-EG    10.5394 eV  117.64 nm  f=0.2884  <S**2>=0.000
       7 -> 11        -0.11896
       8 -> 12         0.48594
       9 -> 13         0.48595

 Excited State  11:      Singlet-EU    10.7255 eV  115.60 nm  f=0.0000  <S**2>=0.000
       8 -> 14         0.49986
       9 -> 15        -0.49985

 Excited State  12:      Singlet-EU    10.7620 eV  115.21 nm  f=0.1015  <S**2>=0.000
       6 -> 10         0.68032
       7 -> 13         0.16823

 Excited State  13:      Singlet-EU    10.7620 eV  115.21 nm  f=0.1015  <S**2>=0.000
       5 -> 10         0.68032
       7 -> 12         0.16823

 Excited State  14:      Singlet-EU    10.8938 eV  113.81 nm  f=0.0000  <S**2>=0.000
       8 -> 15         0.48539
       9 -> 14         0.48493

 Excited State  15:      Singlet-EU    10.9019 eV  113.73 nm  f=0.0000  <S**2>=0.000
       8 -> 15        -0.49692
       9 -> 14         0.49737

 Excited State  16:      Singlet-EU    10.9019 eV  113.73 nm  f=0.0000  <S**2>=0.000
       8 -> 14         0.49714
       9 -> 15         0.49715

 Excited State  17:      Singlet-EU    11.0024 eV  112.69 nm  f=0.0940  <S**2>=0.000
       6 -> 10        -0.15882
       7 -> 13         0.68165

 Excited State  18:      Singlet-EU    11.0024 eV  112.69 nm  f=0.0940  <S**2>=0.000
       5 -> 10        -0.15882
       7 -> 12         0.68165

 Excited State  19:      Singlet-EG    11.4683 eV  108.11 nm  f=0.0000  <S**2>=0.000
       7 -> 15         0.69785

 Excited State  20:      Singlet-EG    11.4683 eV  108.11 nm  f=0.0000  <S**2>=0.000
       7 -> 14         0.69784

 Excited State  21:      Singlet-EG    11.5423 eV  107.42 nm  f=0.0000  <S**2>=0.000
       5 -> 11         0.69835

 Excited State  22:      Singlet-EG    11.5423 eV  107.42 nm  f=0.0000  <S**2>=0.000
       6 -> 11         0.69835

 Excited State  23:      Singlet-EG    11.7139 eV  105.84 nm  f=0.0000  <S**2>=0.000
       8 -> 16         0.70037

 Excited State  24:      Singlet-EG    11.7139 eV  105.84 nm  f=0.0000  <S**2>=0.000
       9 -> 16         0.70037

 Excited State  25:      Singlet-EU    11.9797 eV  103.49 nm  f=0.0000  <S**2>=0.000
       8 -> 17         0.49985
       9 -> 18        -0.49982

 Excited State  26:      Singlet-EU    12.0228 eV  103.12 nm  f=0.0000  <S**2>=0.000
       8 -> 17         0.49544
       9 -> 18         0.49548

 Excited State  27:      Singlet-EU    12.0228 eV  103.12 nm  f=0.0000  <S**2>=0.000
       8 -> 18        -0.49546
       9 -> 17         0.49547

 Excited State  28:      Singlet-EU    12.1638 eV  101.93 nm  f=0.0000  <S**2>=0.000
       5 -> 12        -0.20122
       6 -> 13        -0.20122
       7 -> 16         0.13049
       8 -> 18         0.44592
       9 -> 17         0.44591

 Excited State  29:      Singlet-A1G   12.5318 eV   98.94 nm  f=0.0000  <S**2>=0.000
       5 -> 12         0.23091
       6 -> 13         0.23092
       7 -> 16         0.62511

 Excited State  30:      Singlet-EU    12.5418 eV   98.86 nm  f=0.0000  <S**2>=0.000
       5 -> 13         0.49999
       6 -> 12        -0.49999

 Excited State  31:      Singlet-EU    12.5826 eV   98.54 nm  f=0.0000  <S**2>=0.000
       5 -> 13         0.49038
       6 -> 12         0.49038
       7 -> 17         0.12790

 Excited State  32:      Singlet-EU    12.5826 eV   98.54 nm  f=0.0000  <S**2>=0.000
       5 -> 12         0.49039
       6 -> 13        -0.49038
       7 -> 18        -0.12790

 Excited State  33:      Singlet-EG    12.6225 eV   98.22 nm  f=0.0000  <S**2>=0.000
       8 -> 21         0.49982
       9 -> 20        -0.49981

 Excited State  34:      Singlet-EU    12.6901 eV   97.70 nm  f=0.0065  <S**2>=0.000
       8 -> 19         0.62235
       8 -> 20        -0.23305
       9 -> 21         0.23304

 Excited State  35:      Singlet-EU    12.6901 eV   97.70 nm  f=0.0065  <S**2>=0.000
       8 -> 21         0.23304
       9 -> 19         0.62235
       9 -> 20         0.23305

 Excited State  36:      Singlet-EG    12.7160 eV   97.50 nm  f=0.0000  <S**2>=0.000
       7 -> 17         0.69477

 Excited State  37:      Singlet-EG    12.7160 eV   97.50 nm  f=0.0000  <S**2>=0.000
       7 -> 18         0.69477

 Excited State  38:      Singlet-EG    12.8522 eV   96.47 nm  f=0.0263  <S**2>=0.000
       5 -> 14         0.23840
       6 -> 15         0.23840
       7 -> 21         0.17039
       8 -> 21         0.37788
       9 -> 19        -0.25387
       9 -> 20         0.37788

 Excited State  39:      Singlet-EG    12.8522 eV   96.47 nm  f=0.0263  <S**2>=0.000
       5 -> 15        -0.23840
       6 -> 14         0.23840
       7 -> 20         0.17039
       8 -> 19        -0.25388
       8 -> 20        -0.37787
       9 -> 21         0.37788

 Excited State  40:      Singlet-EG    12.9992 eV   95.38 nm  f=0.0697  <S**2>=0.000
       5 -> 15         0.13091
       6 -> 14         0.13091
       7 -> 19         0.26047
       8 -> 20         0.43847
       9 -> 21         0.43847

 Excited State  41:      Singlet-EG    13.0940 eV   94.69 nm  f=0.0000  <S**2>=0.000
       5 -> 14        -0.49993
       6 -> 15         0.49993

 Excited State  42:      Singlet-EG    13.2000 eV   93.93 nm  f=0.0749  <S**2>=0.000
       5 -> 15         0.45085
       6 -> 14         0.45085
       7 -> 19         0.14241
       8 -> 20        -0.16592
       9 -> 21        -0.16593

 Excited State  43:      Singlet-EU    13.3405 eV   92.94 nm  f=0.1136  <S**2>=0.000
       5 -> 14        -0.31101
       6 -> 15        -0.31101
       7 -> 21         0.54035

 Excited State  44:      Singlet-EU    13.3405 eV   92.94 nm  f=0.1136  <S**2>=0.000
       5 -> 15         0.31102
       6 -> 14        -0.31101
       7 -> 20         0.54035

 Excited State  45:      Singlet-EU    13.6673 eV   90.72 nm  f=0.1834  <S**2>=0.000
       5 -> 14         0.25257
       5 -> 17         0.11179
       6 -> 15         0.25257
       6 -> 16         0.26847
       6 -> 18         0.11179
       7 -> 21         0.38670
       8 -> 21        -0.15890
       8 -> 22         0.13136
       9 -> 19         0.14669
       9 -> 20        -0.15890
       9 -> 23         0.13136

 Excited State  46:      Singlet-EU    13.6673 eV   90.72 nm  f=0.1834  <S**2>=0.000
       5 -> 15        -0.25257
       5 -> 16         0.26847
       5 -> 18        -0.11179
       6 -> 14         0.25257
       6 -> 17         0.11179
       7 -> 20         0.38670
       8 -> 19         0.14669
       8 -> 20         0.15890
       8 -> 23        -0.13136
       9 -> 21        -0.15890
       9 -> 22         0.13136

 Excited State  47:      Singlet-A2U   13.7664 eV   90.06 nm  f=0.0613  <S**2>=0.000
       4 -> 10        -0.10891
       5 -> 15        -0.12535
       6 -> 14        -0.12535
       7 -> 19         0.52390
       8 -> 23        -0.26451
       9 -> 22        -0.26451

 Excited State  48:      Singlet-EU    13.9100 eV   89.13 nm  f=0.0000  <S**2>=0.000
       4 -> 11         0.18621
       5 -> 12         0.35981
       6 -> 13         0.35982
       7 -> 16        -0.27985
       8 -> 18         0.18915
       9 -> 17         0.18915

 Excited State  49:      Singlet-EU    14.1009 eV   87.93 nm  f=0.0046  <S**2>=0.000
       5 -> 16         0.48819
       8 -> 23         0.35367
       9 -> 22        -0.35366

 Excited State  50:      Singlet-EU    14.1009 eV   87.93 nm  f=0.0046  <S**2>=0.000
       6 -> 16         0.48820
       8 -> 22        -0.35363
       9 -> 23        -0.35369

 Excited State  51:      Singlet-EG    14.1246 eV   87.78 nm  f=0.0000  <S**2>=0.000
       8 -> 22         0.49975
       9 -> 23        -0.49969

 Excited State  52:      Singlet-EU    14.2464 eV   87.03 nm  f=0.1389  <S**2>=0.000
       5 -> 16         0.33038
       5 -> 18         0.30138
       6 -> 17        -0.30138
       8 -> 23        -0.29487
       9 -> 22         0.29486

 Excited State  53:      Singlet-EU    14.2464 eV   87.03 nm  f=0.1389  <S**2>=0.000
       5 -> 17        -0.30137
       6 -> 16         0.33037
       6 -> 18        -0.30138
       8 -> 22         0.29487
       9 -> 23         0.29488

 Excited State  54:      Singlet-EG    14.3520 eV   86.39 nm  f=0.0000  <S**2>=0.000
       5 -> 17         0.49986
       6 -> 18        -0.49986

 Excited State  55:      Singlet-EG    14.4734 eV   85.66 nm  f=0.7305  <S**2>=0.000
       4 -> 10        -0.19547
       5 -> 18         0.12787
       6 -> 17         0.12788
       7 -> 19         0.25409
       7 -> 24        -0.12862
       8 -> 23         0.39866
       9 -> 22         0.39867

 Excited State  56:      Singlet-EG    14.5510 eV   85.21 nm  f=0.2077  <S**2>=0.000
       5 -> 15        -0.10159
       5 -> 16        -0.23308
       5 -> 18         0.35833
       6 -> 14         0.10159
       6 -> 17        -0.35830
       7 -> 20         0.11472
       7 -> 23         0.30193
       8 -> 23         0.11857
       9 -> 22        -0.11857

 Excited State  57:      Singlet-EG    14.5510 eV   85.21 nm  f=0.2077  <S**2>=0.000
       5 -> 14        -0.10159
       5 -> 17         0.35832
       6 -> 15        -0.10159
       6 -> 16         0.23308
       6 -> 18         0.35832
       7 -> 21        -0.11472
       7 -> 22        -0.30193
       8 -> 22         0.11856
       9 -> 23         0.11858

 Excited State  58:      Singlet-EG    14.5799 eV   85.04 nm  f=0.0377  <S**2>=0.000
       4 -> 10         0.26320
       5 -> 18         0.44743
       6 -> 17         0.44745

 Excited State  59:      Singlet-EU    14.9825 eV   82.75 nm  f=0.0000  <S**2>=0.000
       5 -> 21        -0.49984
       6 -> 20         0.49984

 Excited State  60:      Singlet-EU    15.0196 eV   82.55 nm  f=0.3207  <S**2>=0.000
       5 -> 16         0.12686
       5 -> 18        -0.10791
       6 -> 17         0.10791
       7 -> 23         0.62061

 Excited State  61:      Singlet-EU    15.0196 eV   82.55 nm  f=0.3207  <S**2>=0.000
       5 -> 17         0.10791
       6 -> 16         0.12686
       6 -> 18         0.10791
       7 -> 22         0.62061

 Excited State  62:      Singlet-EG    15.0504 eV   82.38 nm  f=0.0000  <S**2>=0.000
       5 -> 21         0.20688
       6 -> 19         0.64211
       6 -> 20         0.20688

 Excited State  63:      Singlet-EG    15.0504 eV   82.38 nm  f=0.0000  <S**2>=0.000
       5 -> 19         0.64212
       5 -> 20        -0.20686
       6 -> 21         0.20688

 Excited State  64:      Singlet-EU    15.2662 eV   81.21 nm  f=0.0000  <S**2>=0.000
       5 -> 20         0.48863
       6 -> 21         0.48861

 Excited State  65:      Singlet-EU    15.3027 eV   81.02 nm  f=0.0000  <S**2>=0.000
       5 -> 19        -0.27251
       5 -> 20        -0.43781
       6 -> 21         0.43783
       8 -> 25        -0.14449

 Excited State  66:      Singlet-EU    15.3027 eV   81.02 nm  f=0.0000  <S**2>=0.000
       5 -> 21         0.43782
       6 -> 19        -0.27252
       6 -> 20         0.43782
       9 -> 25        -0.14448

 Excited State  67:      Singlet-A2U   15.3664 eV   80.69 nm  f=0.0000  <S**2>=0.000
       4 -> 10         0.59513
       5 -> 18        -0.11281
       6 -> 17        -0.11282
       7 -> 19         0.15603
       7 -> 24        -0.22824

 Excited State  68:      Singlet-EU    15.4403 eV   80.30 nm  f=0.0728  <S**2>=0.000
       8 -> 24         0.69564

 Excited State  69:      Singlet-EU    15.4403 eV   80.30 nm  f=0.0728  <S**2>=0.000
       9 -> 24         0.69564

 Excited State  70:      Singlet-EG    15.9588 eV   77.69 nm  f=0.0000  <S**2>=0.000
       8 -> 25         0.67891

 Excited State  71:      Singlet-EG    15.9588 eV   77.69 nm  f=0.0000  <S**2>=0.000
       9 -> 25         0.67891

 Excited State  72:      Singlet-A1G   16.0414 eV   77.29 nm  f=0.0000  <S**2>=0.000
       4 -> 11         0.64378
       7 -> 25         0.21453

 Excited State  73:      Singlet-EU    16.2527 eV   76.29 nm  f=0.0249  <S**2>=0.000
       8 -> 26         0.70498

 Excited State  74:      Singlet-EU    16.2527 eV   76.29 nm  f=0.0249  <S**2>=0.000
       9 -> 26         0.70498

 Excited State  75:      Singlet-EU    16.4923 eV   75.18 nm  f=0.0000  <S**2>=0.000
       5 -> 22         0.49979
       6 -> 23        -0.49933

 Excited State  76:      Singlet-EU    16.4969 eV   75.16 nm  f=0.0000  <S**2>=0.000
       5 -> 22         0.49477
       6 -> 23         0.49524

 Excited State  77:      Singlet-EU    16.4969 eV   75.16 nm  f=0.0000  <S**2>=0.000
       5 -> 23        -0.49499
       6 -> 22         0.49502

 Excited State  78:      Singlet-A2U   16.5232 eV   75.04 nm  f=0.3089  <S**2>=0.000
       4 -> 10         0.10998
       7 -> 19         0.12862
       7 -> 24         0.62521
       7 -> 33        -0.18041

 Excited State  79:      Singlet-EU    16.6231 eV   74.59 nm  f=0.0000  <S**2>=0.000
       5 -> 23         0.43048
       6 -> 22         0.43045
       7 -> 25         0.29296
       8 -> 28         0.10432
       9 -> 27         0.10433

 Excited State  80:      Singlet-A1G   16.7532 eV   74.01 nm  f=0.0000  <S**2>=0.000
       4 -> 11        -0.11330
       5 -> 23        -0.23356
       6 -> 22        -0.23354
       7 -> 25         0.56723
       8 -> 28         0.12761
       9 -> 27         0.12761

 Excited State  81:      Singlet-EG    16.9562 eV   73.12 nm  f=0.0000  <S**2>=0.000
       4 -> 13         0.69212
       6 -> 24        -0.12062

 Excited State  82:      Singlet-EG    16.9562 eV   73.12 nm  f=0.0000  <S**2>=0.000
       4 -> 12         0.69212
       5 -> 24        -0.12061

 Excited State  83:      Singlet-A1U   16.9884 eV   72.98 nm  f=0.0000  <S**2>=0.000
       7 -> 26         0.70576

 Excited State  84:      Singlet-EU    17.2146 eV   72.02 nm  f=0.0000  <S**2>=0.000
       8 -> 27         0.49963
       9 -> 28        -0.49963

 Excited State  85:      Singlet-EU    17.2499 eV   71.88 nm  f=0.0184  <S**2>=0.000
       4 -> 14        -0.12889
       8 -> 31        -0.18832
       9 -> 29         0.63923
       9 -> 30        -0.18834

 Excited State  86:      Singlet-EU    17.2499 eV   71.88 nm  f=0.0184  <S**2>=0.000
       4 -> 15        -0.12889
       8 -> 29         0.63923
       8 -> 30         0.18835
       9 -> 31        -0.18834

 Excited State  87:      Singlet-EG    17.2731 eV   71.78 nm  f=0.0000  <S**2>=0.000
       8 -> 31         0.49915
       9 -> 30        -0.49913

 Excited State  88:      Singlet-EG    17.4536 eV   71.04 nm  f=0.0000  <S**2>=0.000
       8 -> 27         0.36745
       9 -> 28         0.36746
       9 -> 32         0.46213

 Excited State  89:      Singlet-EG    17.4536 eV   71.04 nm  f=0.0000  <S**2>=0.000
       8 -> 28        -0.36744
       8 -> 32         0.46213
       9 -> 27         0.36747

 Excited State  90:      Singlet-EG    17.4977 eV   70.86 nm  f=0.0661  <S**2>=0.000
       4 -> 14         0.13584
       6 -> 25        -0.16788
       7 -> 31         0.16052
       8 -> 31         0.41365
       9 -> 29         0.25792
       9 -> 30         0.41366

 Excited State  91:      Singlet-EG    17.4977 eV   70.86 nm  f=0.0661  <S**2>=0.000
       4 -> 15         0.13583
       5 -> 25        -0.16788
       7 -> 30         0.16053
       8 -> 29         0.25794
       8 -> 30        -0.41364
       9 -> 31         0.41366

 Excited State  92:      Singlet-EU    17.5561 eV   70.62 nm  f=0.0024  <S**2>=0.000
       4 -> 15         0.67150
       8 -> 30         0.11451
       9 -> 31        -0.11451

 Excited State  93:      Singlet-EU    17.5561 eV   70.62 nm  f=0.0024  <S**2>=0.000
       4 -> 14         0.67150
       8 -> 31        -0.11451
       9 -> 30        -0.11451

 Excited State  94:      Singlet-EU    17.5695 eV   70.57 nm  f=0.0000  <S**2>=0.000
       3 -> 10        -0.13696
       4 -> 11         0.10581
       5 -> 30        -0.10955
       6 -> 31        -0.10954
       7 -> 25        -0.14583
       8 -> 28         0.43412
       8 -> 35         0.10344
       9 -> 27         0.43406
       9 -> 34         0.10344

 Excited State  95:      Singlet-EG    17.6866 eV   70.10 nm  f=0.0000  <S**2>=0.000
       7 -> 28        -0.27492
       8 -> 28         0.27808
       8 -> 32         0.49320
       9 -> 27        -0.27811

 Excited State  96:      Singlet-EG    17.6866 eV   70.10 nm  f=0.0000  <S**2>=0.000
       7 -> 27        -0.27493
       8 -> 27        -0.27809
       9 -> 28        -0.27810
       9 -> 32         0.49320

 Excited State  97:      Singlet-EG    17.8037 eV   69.64 nm  f=0.0000  <S**2>=0.000
       4 -> 13         0.10889
       6 -> 24         0.67260
       7 -> 27         0.10031

 Excited State  98:      Singlet-EG    17.8037 eV   69.64 nm  f=0.0000  <S**2>=0.000
       4 -> 12         0.10889
       5 -> 24         0.67260
       7 -> 28         0.10032

 Excited State  99:      Singlet-EG    17.8234 eV   69.56 nm  f=0.2278  <S**2>=0.000
       7 -> 29         0.17378
       8 -> 30         0.46041
       9 -> 31         0.46040

 Excited State 100:      Singlet-EG    17.9843 eV   68.94 nm  f=0.0000  <S**2>=0.000
       5 -> 24        -0.12456
       7 -> 28         0.63792
       8 -> 28         0.11825
       8 -> 32         0.16594
       9 -> 27        -0.11826

 Excited State 101:      Singlet-EG    17.9843 eV   68.94 nm  f=0.0000  <S**2>=0.000
       6 -> 24        -0.12456
       7 -> 27         0.63792
       8 -> 27        -0.11826
       9 -> 28        -0.11826
       9 -> 32         0.16595

 Excited State 102:      Singlet-EU    18.0627 eV   68.64 nm  f=0.0079  <S**2>=0.000
       6 -> 25         0.19748
       7 -> 31         0.52327
       9 -> 33        -0.41644

 Excited State 103:      Singlet-EU    18.0627 eV   68.64 nm  f=0.0079  <S**2>=0.000
       5 -> 25         0.19747
       7 -> 30         0.52327
       8 -> 33        -0.41645

 Excited State 104:      Singlet-A2U   18.0788 eV   68.58 nm  f=0.0501  <S**2>=0.000
       7 -> 29         0.67056
       8 -> 30        -0.11871
       9 -> 31        -0.11871

 Excited State 105:      Singlet-A1G   18.2541 eV   67.92 nm  f=0.0000  <S**2>=0.000
       3 -> 10         0.21702
       7 -> 32         0.44830
       8 -> 35         0.35129
       9 -> 34         0.35124

 Excited State 106:      Singlet-EU    18.2628 eV   67.89 nm  f=0.0069  <S**2>=0.000
       4 -> 17        -0.13227
       6 -> 25         0.43238
       7 -> 31         0.20774
       9 -> 33         0.49009

 Excited State 107:      Singlet-EU    18.2628 eV   67.89 nm  f=0.0069  <S**2>=0.000
       4 -> 18        -0.13227
       5 -> 25         0.43239
       7 -> 30         0.20775
       8 -> 33         0.49009

 Excited State 108:      Singlet-EU    18.2878 eV   67.80 nm  f=0.0000  <S**2>=0.000
       8 -> 34        -0.49900
       9 -> 35         0.49909

 Excited State 109:      Singlet-EU    18.2982 eV   67.76 nm  f=0.0000  <S**2>=0.000
       8 -> 35        -0.49730
       9 -> 34         0.49735

 Excited State 110:      Singlet-EU    18.2982 eV   67.76 nm  f=0.0000  <S**2>=0.000
       8 -> 34         0.49737
       9 -> 35         0.49728

 Excited State 111:      Singlet-A1G   18.3858 eV   67.43 nm  f=0.0000  <S**2>=0.000
       3 -> 10        -0.26881
       7 -> 32         0.53878
       8 -> 35        -0.25768
       9 -> 34        -0.25766

 Excited State 112:      Singlet-A2U   18.4367 eV   67.25 nm  f=0.1206  <S**2>=0.000
       4 -> 16         0.70386

 Excited State 113:      Singlet-EU    18.4850 eV   67.07 nm  f=0.1893  <S**2>=0.000
       5 -> 27        -0.14663
       6 -> 25         0.47467
       6 -> 28        -0.14662
       7 -> 31        -0.33613
       8 -> 31         0.10062
       9 -> 30         0.10062
       9 -> 33        -0.26214

 Excited State 114:      Singlet-EU    18.4850 eV   67.07 nm  f=0.1893  <S**2>=0.000
       5 -> 25         0.47467
       5 -> 28         0.14662
       6 -> 27        -0.14663
       7 -> 30        -0.33613
       8 -> 30        -0.10062
       8 -> 33        -0.26214
       9 -> 31         0.10063

 Excited State 115:      Singlet-EG    18.6306 eV   66.55 nm  f=0.0000  <S**2>=0.000
       6 -> 26         0.69676

 The electronic state is 1-A1G.
 Alpha  occ. eigenvalues --   -9.91228  -9.91227  -0.67014  -0.54233  -0.38383
 Alpha  occ. eigenvalues --   -0.38383  -0.32341  -0.29724  -0.29724
 Alpha virt. eigenvalues --    0.00754   0.03777   0.07709   0.07709   0.09789
 Alpha virt. eigenvalues --    0.09789   0.13318   0.14402   0.14402   0.16669
 Alpha virt. eigenvalues --    0.16750   0.16750   0.22330   0.22330   0.26568

 Mulliken charges:
               1
     1  C    0.475266
     2  C    0.475266
     3  H   -0.158422
     4  H   -0.158422
     5  H   -0.158422
     6  H   -0.158422
     7  H   -0.158422
     8  H   -0.158422
 Sum of Mulliken charges =  -0.00000

 Dipole moment (field-independent basis, Debye):
    X=              0.0000    Y=             -0.0000    Z=              0.0000  Tot=              0.0000
 Quadrupole moment (field-independent basis, Debye-Ang):
   XX=            -15.1928   YY=            -15.1928   ZZ=            -15.9819
   XY=             -0.0000   XZ=              0.0000   YZ=              0.0000

 Normal termination of Gaussian 16 at Mon Mar 21 20:06:40 2022.
