 Gaussian 16, Revision C.01,
 Gaussian 16:  EM64L-G16RevC.01  3-Jul-2019

 --------------------------------------------------------------------
 #P TD(Nstates=10000) blyp/Gen SCF(maxcycles=100) Int(Grid=ultrafine)
 --------------------------------------------------------------------

 ---------------------
 xGDB7_00001_tier4.com
 ---------------------
 Symbolic Z-matrix:
 Charge =  0 Multiplicity = 1

                         Standard orientation:
 ---------------------------------------------------------------------
 Center     Atomic      Atomic             Coordinates (Angstroms)
 Number     Number       Type             X           Y           Z
 ---------------------------------------------------------------------
      1          6           0        0.000000    1.163894   -0.193136
      2          8           0       -0.000000   -0.000000    0.585449
      3          6           0       -0.000000   -1.163894   -0.193136
      4          1           0        0.000000    2.015478    0.485827
      5          1           0       -0.890390    1.219204   -0.834404
      6          1           0        0.890390    1.219204   -0.834404
      7          1           0       -0.000000   -2.015478    0.485827
      8          1           0        0.890390   -1.219204   -0.834404
      9          1           0       -0.890390   -1.219204   -0.834404
 ---------------------------------------------------------------------

 SCF Done:  E(RB-LYP) =  -154.851882415     A.U. after   12 cycles

 Excitation energies and oscillator strengths:

 Excited State   1:      Singlet-B1     5.9489 eV  208.41 nm  f=0.0252  <S**2>=0.000
      13 -> 14         0.70669
 This state for optimization and/or second-order correction.
 Total Energy, E(TD-HF/TD-DFT) =  -154.633263285
 Copying the excited state density for this state as the 1-particle RhoCI density.

 Excited State   2:      Singlet-A2     6.7198 eV  184.51 nm  f=0.0000  <S**2>=0.000
      13 -> 15         0.70691

 Excited State   3:      Singlet-B1     7.2220 eV  171.68 nm  f=0.0177  <S**2>=0.000
      13 -> 16         0.70260

 Excited State   4:      Singlet-A1     7.5652 eV  163.89 nm  f=0.0070  <S**2>=0.000
      12 -> 14         0.44039
      13 -> 17         0.55254

 Excited State   5:      Singlet-B1     7.6045 eV  163.04 nm  f=0.0194  <S**2>=0.000
      13 -> 18         0.70316

 Excited State   6:      Singlet-A1     7.7257 eV  160.48 nm  f=0.0640  <S**2>=0.000
      12 -> 14         0.54770
      13 -> 17        -0.43151

 Excited State   7:      Singlet-A2     8.2503 eV  150.28 nm  f=0.0000  <S**2>=0.000
      13 -> 19         0.70691

 Excited State   8:      Singlet-B2     8.3995 eV  147.61 nm  f=0.0058  <S**2>=0.000
      12 -> 15         0.70439

 Excited State   9:      Singlet-B1     8.7506 eV  141.69 nm  f=0.0022  <S**2>=0.000
      13 -> 21         0.70587

 Excited State  10:      Singlet-A1     8.8140 eV  140.67 nm  f=0.0313  <S**2>=0.000
      12 -> 16         0.65015
      13 -> 20         0.26470

 Excited State  11:      Singlet-B2     8.9593 eV  138.39 nm  f=0.0957  <S**2>=0.000
      13 -> 22         0.70018

 Excited State  12:      Singlet-A1     8.9981 eV  137.79 nm  f=0.0482  <S**2>=0.000
      12 -> 16        -0.26415
      13 -> 20         0.63895

 Excited State  13:      Singlet-B2     9.2408 eV  134.17 nm  f=0.0517  <S**2>=0.000
      11 -> 14         0.70431

 Excited State  14:      Singlet-B1     9.2448 eV  134.11 nm  f=0.0510  <S**2>=0.000
      12 -> 17         0.70533

 Excited State  15:      Singlet-A1     9.3308 eV  132.88 nm  f=0.0142  <S**2>=0.000
      12 -> 18         0.69818

 Excited State  16:      Singlet-A2     9.6571 eV  128.39 nm  f=0.0000  <S**2>=0.000
      10 -> 14         0.70097

 Excited State  17:      Singlet-A2     9.8296 eV  126.13 nm  f=0.0000  <S**2>=0.000
      13 -> 23         0.69887

 Excited State  18:      Singlet-B1     9.8483 eV  125.89 nm  f=0.0015  <S**2>=0.000
      13 -> 24         0.70662

 Excited State  19:      Singlet-B2     9.9270 eV  124.90 nm  f=0.0656  <S**2>=0.000
      12 -> 19         0.69648

 Excited State  20:      Singlet-A1    10.0603 eV  123.24 nm  f=0.0279  <S**2>=0.000
      11 -> 15         0.70234

 Excited State  21:      Singlet-B2    10.0937 eV  122.83 nm  f=0.0179  <S**2>=0.000
      13 -> 25         0.69213

 Excited State  22:      Singlet-B1    10.4036 eV  119.17 nm  f=0.0000  <S**2>=0.000
      10 -> 15         0.24755
      12 -> 20         0.66092

 Excited State  23:      Singlet-B2    10.4361 eV  118.80 nm  f=0.0177  <S**2>=0.000
      11 -> 16         0.69734

 Excited State  24:      Singlet-B1    10.4633 eV  118.49 nm  f=0.0727  <S**2>=0.000
      10 -> 15         0.65893
      12 -> 20        -0.24481

 Excited State  25:      Singlet-A1    10.4993 eV  118.09 nm  f=0.0365  <S**2>=0.000
      12 -> 21         0.70008

 Excited State  26:      Singlet-A2    10.5518 eV  117.50 nm  f=0.0000  <S**2>=0.000
      12 -> 22         0.70147

 Excited State  27:      Singlet-A2    10.7964 eV  114.84 nm  f=0.0000  <S**2>=0.000
      10 -> 16         0.50039
      11 -> 17        -0.43605
      13 -> 26         0.24036

 Excited State  28:      Singlet-A2    10.8400 eV  114.38 nm  f=0.0000  <S**2>=0.000
      10 -> 16         0.26664
      11 -> 17         0.52316
      13 -> 26         0.39313

 Excited State  29:      Singlet-A2    10.8603 eV  114.16 nm  f=0.0000  <S**2>=0.000
      10 -> 16        -0.41379
      11 -> 17        -0.18880
      13 -> 26         0.53282

 Excited State  30:      Singlet-B2    10.9495 eV  113.23 nm  f=0.1385  <S**2>=0.000
      10 -> 17         0.13234
      11 -> 18         0.68553

 Excited State  31:      Singlet-A1    11.0600 eV  112.10 nm  f=0.0068  <S**2>=0.000
      12 -> 24         0.20930
      13 -> 27         0.66735

 Excited State  32:      Singlet-A2    11.3009 eV  109.71 nm  f=0.0000  <S**2>=0.000
      10 -> 18         0.69459

 Excited State  33:      Singlet-B2    11.4351 eV  108.42 nm  f=0.0003  <S**2>=0.000
       7 -> 14         0.14882
      10 -> 17         0.60323
      12 -> 23         0.30685

 Excited State  34:      Singlet-B2    11.4912 eV  107.89 nm  f=0.0312  <S**2>=0.000
       7 -> 14        -0.13557
      10 -> 17        -0.26066
      12 -> 23         0.62958

 Excited State  35:      Singlet-A1    11.5843 eV  107.03 nm  f=0.0133  <S**2>=0.000
       8 -> 14         0.63326
      11 -> 19         0.17922
      12 -> 24         0.24299

 Excited State  36:      Singlet-B1    11.6063 eV  106.82 nm  f=0.1038  <S**2>=0.000
       9 -> 14         0.70001

 Excited State  37:      Singlet-A1    11.6467 eV  106.45 nm  f=0.0182  <S**2>=0.000
      11 -> 19         0.58420
      12 -> 24        -0.36449

 Excited State  38:      Singlet-A2    11.6876 eV  106.08 nm  f=0.0000  <S**2>=0.000
      11 -> 20         0.10716
      12 -> 25         0.68747

 Excited State  39:      Singlet-A1    11.9145 eV  104.06 nm  f=0.0918  <S**2>=0.000
       8 -> 14        -0.30426
      10 -> 22         0.11664
      11 -> 19         0.30348
      12 -> 24         0.48319
      13 -> 27        -0.14962

 Excited State  40:      Singlet-A2    11.9243 eV  103.98 nm  f=0.0000  <S**2>=0.000
      13 -> 28         0.69980

 Excited State  41:      Singlet-B1    11.9611 eV  103.66 nm  f=0.0069  <S**2>=0.000
      10 -> 19         0.70014

 Excited State  42:      Singlet-A2    12.0398 eV  102.98 nm  f=0.0000  <S**2>=0.000
      10 -> 21         0.17373
      11 -> 20         0.67157

 Excited State  43:      Singlet-B2    12.0508 eV  102.88 nm  f=0.0078  <S**2>=0.000
       7 -> 14         0.64260
      10 -> 17        -0.15088
      10 -> 20        -0.12130
      11 -> 21         0.13779

 Excited State  44:      Singlet-B2    12.1221 eV  102.28 nm  f=0.0053  <S**2>=0.000
       7 -> 14        -0.15633
      10 -> 20        -0.13086
      11 -> 21         0.66581

 Excited State  45:      Singlet-B1    12.1508 eV  102.04 nm  f=0.0051  <S**2>=0.000
      11 -> 22         0.69496

 Excited State  46:      Singlet-A2    12.3349 eV  100.51 nm  f=0.0000  <S**2>=0.000
       9 -> 15         0.70530

 Excited State  47:      Singlet-B2    12.4257 eV   99.78 nm  f=0.0573  <S**2>=0.000
       8 -> 15         0.65126
      10 -> 20         0.25644

 Excited State  48:      Singlet-B1    12.5065 eV   99.14 nm  f=0.0081  <S**2>=0.000
       9 -> 16         0.14744
      13 -> 29         0.66683

 Excited State  49:      Singlet-B2    12.5490 eV   98.80 nm  f=0.0032  <S**2>=0.000
       7 -> 16        -0.12624
       8 -> 15        -0.22037
      10 -> 20         0.60927
      11 -> 21         0.14506
      12 -> 26        -0.11869

 Excited State  50:      Singlet-A2    12.5624 eV   98.69 nm  f=0.0000  <S**2>=0.000
      10 -> 21         0.67298
      11 -> 20        -0.15086

 Excited State  51:      Singlet-B2    12.5876 eV   98.50 nm  f=0.0441  <S**2>=0.000
       8 -> 15        -0.10883
      10 -> 20         0.10893
      12 -> 26         0.67867

 Excited State  52:      Singlet-B1    12.5937 eV   98.45 nm  f=0.0022  <S**2>=0.000
       9 -> 16        -0.12250
      12 -> 27         0.69217

 Excited State  53:      Singlet-A1    12.6675 eV   97.88 nm  f=0.0008  <S**2>=0.000
       7 -> 15         0.50671
      10 -> 22         0.47728

 Excited State  54:      Singlet-B1    12.8046 eV   96.83 nm  f=0.0000  <S**2>=0.000
       9 -> 16         0.66395
       9 -> 18        -0.10802
      12 -> 27         0.10168
      13 -> 29        -0.15803

 Excited State  55:      Singlet-A1    12.8312 eV   96.63 nm  f=0.0503  <S**2>=0.000
       7 -> 15         0.43454
       8 -> 16         0.12996
       8 -> 18        -0.13282
       9 -> 17         0.21667
      10 -> 22        -0.38298
      11 -> 23         0.25432

 Excited State  56:      Singlet-A1    12.8943 eV   96.15 nm  f=0.0228  <S**2>=0.000
       8 -> 16         0.65874
       9 -> 17        -0.15728

 Excited State  57:      Singlet-B1    13.0422 eV   95.06 nm  f=0.0237  <S**2>=0.000
       9 -> 18        -0.16740
      10 -> 23         0.10588
      11 -> 25        -0.10681
      13 -> 30         0.66095

 Excited State  58:      Singlet-A1    13.1194 eV   94.50 nm  f=0.0245  <S**2>=0.000
       8 -> 16        -0.12580
       8 -> 18         0.29390
       9 -> 17        -0.12030
      11 -> 23         0.59658

 Excited State  59:      Singlet-B1    13.1908 eV   93.99 nm  f=0.0009  <S**2>=0.000
       8 -> 17        -0.14818
       9 -> 18         0.58804
      10 -> 23         0.10612
      11 -> 25        -0.33382

 Excited State  60:      Singlet-B2    13.1932 eV   93.98 nm  f=0.0147  <S**2>=0.000
       7 -> 16        -0.28530
       8 -> 19         0.11650
      11 -> 24         0.61666

 Excited State  61:      Singlet-B1    13.2155 eV   93.82 nm  f=0.0028  <S**2>=0.000
       8 -> 17         0.67742
       9 -> 18         0.17124

 Excited State  62:      Singlet-A1    13.2504 eV   93.57 nm  f=0.0218  <S**2>=0.000
       8 -> 18         0.45701
       9 -> 17         0.51202
      11 -> 23        -0.10577

 Excited State  63:      Singlet-B2    13.2788 eV   93.37 nm  f=0.2065  <S**2>=0.000
       7 -> 16         0.58205
       7 -> 18        -0.17515
      11 -> 24         0.27999
      12 -> 28        -0.18598

 Excited State  64:      Singlet-A2    13.3056 eV   93.18 nm  f=0.0000  <S**2>=0.000
      13 -> 31         0.69856

 Excited State  65:      Singlet-B1    13.3105 eV   93.15 nm  f=0.0229  <S**2>=0.000
       8 -> 17        -0.11831
       9 -> 18         0.20333
      10 -> 23         0.34982
      11 -> 25         0.55021

 Excited State  66:      Singlet-B1    13.4560 eV   92.14 nm  f=0.0140  <S**2>=0.000
      10 -> 23        -0.15043
      13 -> 32         0.68617

 Excited State  67:      Singlet-A1    13.4941 eV   91.88 nm  f=0.0499  <S**2>=0.000
      10 -> 25        -0.17823
      13 -> 33         0.67078

 Excited State  68:      Singlet-A2    13.5320 eV   91.62 nm  f=0.0000  <S**2>=0.000
       7 -> 17         0.39814
      10 -> 24         0.58352

 Excited State  69:      Singlet-A2    13.5528 eV   91.48 nm  f=0.0000  <S**2>=0.000
       7 -> 17         0.58248
      10 -> 24        -0.39761

 Excited State  70:      Singlet-B2    13.5944 eV   91.20 nm  f=0.0049  <S**2>=0.000
       7 -> 18         0.58957
       8 -> 19        -0.10699
      12 -> 28        -0.35579

 Excited State  71:      Singlet-B1    13.7400 eV   90.24 nm  f=0.0185  <S**2>=0.000
      10 -> 23         0.16580
      13 -> 34         0.66481

 Excited State  72:      Singlet-A1    13.8052 eV   89.81 nm  f=0.0037  <S**2>=0.000
       7 -> 15         0.10542
       7 -> 19        -0.20317
       8 -> 18         0.30371
       9 -> 17        -0.26771
      10 -> 22        -0.19727
      10 -> 25         0.32867
      11 -> 23        -0.15458
      11 -> 26         0.21602
      13 -> 36         0.11194

 Excited State  73:      Singlet-B1    13.8170 eV   89.73 nm  f=0.1821  <S**2>=0.000
       8 -> 20         0.17609
       9 -> 18        -0.16108
       9 -> 21        -0.18979
      10 -> 23         0.49681
      11 -> 25        -0.19890
      13 -> 30        -0.14482
      13 -> 32         0.11321
      13 -> 34        -0.22989

 Excited State  74:      Singlet-A2    13.8606 eV   89.45 nm  f=0.0000  <S**2>=0.000
       9 -> 19         0.70584

 Excited State  75:      Singlet-A1    13.8979 eV   89.21 nm  f=0.0622  <S**2>=0.000
       7 -> 19         0.17198
       8 -> 18        -0.19108
       9 -> 17         0.17032
       9 -> 20        -0.14128
      10 -> 25         0.53847
      12 -> 29         0.13179
      13 -> 33         0.14782

 Excited State  76:      Singlet-B2    13.9198 eV   89.07 nm  f=0.3406  <S**2>=0.000
       7 -> 16         0.16122
       7 -> 18         0.25985
       8 -> 19        -0.21239
       9 -> 22         0.11149
      10 -> 27         0.10427
      11 -> 24         0.11855
      12 -> 28         0.52403

 Excited State  77:      Singlet-B2    14.0977 eV   87.95 nm  f=0.0015  <S**2>=0.000
       7 -> 18         0.13883
       8 -> 19         0.61872
       9 -> 22         0.21486

 Excited State  78:      Singlet-A1    14.1267 eV   87.77 nm  f=0.0288  <S**2>=0.000
       7 -> 19         0.19710
       8 -> 21         0.10416
      11 -> 26         0.47853
      12 -> 29         0.43913
      13 -> 36        -0.11077

 Excited State  79:      Singlet-A1    14.1633 eV   87.54 nm  f=0.0005  <S**2>=0.000
       7 -> 19        -0.20254
       9 -> 20        -0.21111
      11 -> 26        -0.39117
      12 -> 29         0.46424

 Excited State  80:      Singlet-A2    14.2002 eV   87.31 nm  f=0.0000  <S**2>=0.000
      11 -> 27         0.70316

 Excited State  81:      Singlet-B1    14.3474 eV   86.42 nm  f=0.0006  <S**2>=0.000
       8 -> 20         0.46582
       9 -> 21         0.52875

 Excited State  82:      Singlet-A1    14.3685 eV   86.29 nm  f=0.0320  <S**2>=0.000
       7 -> 19         0.38775
       8 -> 21        -0.29989
       9 -> 20         0.33820
      11 -> 26        -0.21405
      12 -> 29         0.12958
      13 -> 36         0.12557

 Excited State  83:      Singlet-A1    14.4566 eV   85.76 nm  f=0.0008  <S**2>=0.000
       7 -> 19         0.33515
       8 -> 21         0.33014
       9 -> 20        -0.30618
      13 -> 36         0.37322

 Excited State  84:      Singlet-B1    14.4825 eV   85.61 nm  f=0.0587  <S**2>=0.000
       8 -> 20        -0.31067
       9 -> 21         0.22553
      10 -> 26         0.33109
      13 -> 35         0.48094

 Excited State  85:      Singlet-B1    14.5089 eV   85.45 nm  f=0.0029  <S**2>=0.000
       8 -> 20         0.17327
       9 -> 21        -0.16041
      10 -> 26        -0.42303
      13 -> 35         0.50052

 Excited State  86:      Singlet-A2    14.5415 eV   85.26 nm  f=0.0000  <S**2>=0.000
       8 -> 22         0.70314

 Excited State  87:      Singlet-A1    14.5945 eV   84.95 nm  f=0.0727  <S**2>=0.000
       7 -> 19        -0.13763
       8 -> 21         0.38976
       9 -> 20         0.38288
      11 -> 28         0.17840
      12 -> 30        -0.27232
      13 -> 36         0.19636

 Excited State  88:      Singlet-B2    14.6230 eV   84.79 nm  f=0.0182  <S**2>=0.000
       7 -> 21         0.35208
       9 -> 22         0.38498
      10 -> 27         0.45272

 Excited State  89:      Singlet-A1    14.6690 eV   84.52 nm  f=0.0156  <S**2>=0.000
       7 -> 19        -0.19218
       8 -> 21        -0.17537
      12 -> 29         0.13005
      12 -> 30         0.18300
      12 -> 32        -0.15997
      13 -> 36         0.46815
      13 -> 38        -0.28934

 Excited State  90:      Singlet-B2    14.6987 eV   84.35 nm  f=0.1449  <S**2>=0.000
       7 -> 21        -0.26980
       9 -> 22        -0.30976
      10 -> 27         0.49590
      12 -> 31         0.10603
      13 -> 37        -0.22023

 Excited State  91:      Singlet-A2    14.7046 eV   84.32 nm  f=0.0000  <S**2>=0.000
       7 -> 20         0.70437

 Excited State  92:      Singlet-A1    14.7113 eV   84.28 nm  f=0.0444  <S**2>=0.000
       8 -> 21         0.10652
       9 -> 20         0.16202
      12 -> 30         0.57463
      13 -> 38         0.31890

 Excited State  93:      Singlet-B1    14.7427 eV   84.10 nm  f=0.1078  <S**2>=0.000
       7 -> 22         0.41399
       8 -> 20         0.25784
       9 -> 21        -0.22987
      10 -> 26         0.40357

 Excited State  94:      Singlet-B2    14.7902 eV   83.83 nm  f=0.0048  <S**2>=0.000
       7 -> 21         0.45026
       9 -> 22        -0.38072
      12 -> 31         0.15454
      13 -> 37         0.29114

 Excited State  95:      Singlet-B2    14.8720 eV   83.37 nm  f=0.1834  <S**2>=0.000
       7 -> 21        -0.20830
      10 -> 27         0.15224
      12 -> 31        -0.42514
      13 -> 37         0.48064

 Excited State  96:      Singlet-A1    14.9441 eV   82.97 nm  f=0.0377  <S**2>=0.000
       6 -> 14        -0.12173
       8 -> 21        -0.12461
       9 -> 20        -0.13315
      11 -> 28        -0.18247
      12 -> 30        -0.16629
      12 -> 32        -0.24602
      13 -> 36         0.16010
      13 -> 38         0.51413

 Excited State  97:      Singlet-B1    14.9916 eV   82.70 nm  f=0.3315  <S**2>=0.000
       7 -> 22         0.52179
       8 -> 20        -0.18973
       9 -> 21         0.16354
      10 -> 23         0.11450
      10 -> 26        -0.15609
      12 -> 33         0.29754

 Excited State  98:      Singlet-A2    15.1042 eV   82.09 nm  f=0.0000  <S**2>=0.000
      13 -> 39         0.70497

 Excited State  99:      Singlet-B2    15.1271 eV   81.96 nm  f=0.0743  <S**2>=0.000
       7 -> 21        -0.18950
       9 -> 22         0.12827
      11 -> 29         0.13244
      12 -> 28        -0.10307
      12 -> 31         0.49899
      13 -> 37         0.30048
      13 -> 40         0.17042

 Excited State 100:      Singlet-B1    15.1870 eV   81.64 nm  f=0.1756  <S**2>=0.000
       7 -> 22        -0.16765
       9 -> 21        -0.11695
       9 -> 24        -0.11897
      12 -> 33         0.62299

 Excited State 101:      Singlet-A1    15.2425 eV   81.34 nm  f=0.0306  <S**2>=0.000
       6 -> 14        -0.17480
      11 -> 28        -0.16337
      12 -> 32         0.60133
      13 -> 38         0.10256

 Excited State 102:      Singlet-A1    15.3900 eV   80.56 nm  f=0.0826  <S**2>=0.000
       6 -> 14         0.13045
       8 -> 24         0.14175
      12 -> 34         0.65787

 Excited State 103:      Singlet-A2    15.4481 eV   80.26 nm  f=0.0000  <S**2>=0.000
       8 -> 25         0.20007
       9 -> 23         0.64881
      13 -> 41        -0.17515

 Excited State 104:      Singlet-B2    15.4535 eV   80.23 nm  f=0.0163  <S**2>=0.000
       9 -> 25         0.16845
      12 -> 31        -0.10290
      13 -> 37        -0.11196
      13 -> 40         0.65995

 Excited State 105:      Singlet-A1    15.4561 eV   80.22 nm  f=0.0572  <S**2>=0.000
       6 -> 14        -0.12860
       8 -> 24         0.52061
      11 -> 28         0.40400
      12 -> 34        -0.13873

 Excited State 106:      Singlet-B1    15.4645 eV   80.17 nm  f=0.0347  <S**2>=0.000
       9 -> 24         0.68253
      10 -> 28         0.11477

 Excited State 107:      Singlet-B2    15.5020 eV   79.98 nm  f=0.0266  <S**2>=0.000
       8 -> 23         0.68769

 Excited State 108:      Singlet-B1    15.6284 eV   79.33 nm  f=0.0013  <S**2>=0.000
       9 -> 24        -0.11635
      10 -> 28         0.69402

 Excited State 109:      Singlet-A2    15.6489 eV   79.23 nm  f=0.0000  <S**2>=0.000
       8 -> 25         0.40476
      13 -> 41         0.57493

 Excited State 110:      Singlet-A1    15.7270 eV   78.84 nm  f=0.0702  <S**2>=0.000
       6 -> 14         0.51478
       7 -> 23        -0.34093
      11 -> 28         0.11537
      12 -> 32         0.11196
      12 -> 34        -0.12792

 Excited State 111:      Singlet-B2    15.7398 eV   78.77 nm  f=0.0061  <S**2>=0.000
       7 -> 24         0.12881
       9 -> 25         0.63702
      11 -> 29        -0.16927
      13 -> 40        -0.14517

 Excited State 112:      Singlet-A2    15.7948 eV   78.50 nm  f=0.0000  <S**2>=0.000
       8 -> 25         0.52345
       9 -> 23        -0.23519
      13 -> 41        -0.36176

 Excited State 113:      Singlet-B2    15.8439 eV   78.25 nm  f=0.2296  <S**2>=0.000
       6 -> 15         0.13995
       7 -> 24         0.25811
       9 -> 25         0.11768
      11 -> 29         0.57406
      11 -> 30        -0.15366

 Excited State 114:      Singlet-B2    15.8627 eV   78.16 nm  f=0.0079  <S**2>=0.000
       7 -> 24         0.63552
       9 -> 25        -0.16893
      11 -> 29        -0.21845

 Excited State 115:      Singlet-A1    15.8750 eV   78.10 nm  f=0.2009  <S**2>=0.000
       7 -> 23         0.33472
       7 -> 26        -0.11420
       8 -> 21        -0.15015
       8 -> 24        -0.34200
       9 -> 27        -0.14702
      11 -> 28         0.38360

 Excited State 116:      Singlet-A1    16.0260 eV   77.36 nm  f=0.0051  <S**2>=0.000
       6 -> 14         0.31264
       7 -> 23         0.45635
       7 -> 26         0.13401
       8 -> 24         0.19504
      11 -> 28        -0.12343
      12 -> 34        -0.11520
      12 -> 35         0.21893

 Excited State 117:      Singlet-B1    16.0354 eV   77.32 nm  f=0.0136  <S**2>=0.000
       7 -> 25         0.64221
      12 -> 36         0.26296

 Excited State 118:      Singlet-A2    16.0523 eV   77.24 nm  f=0.0000  <S**2>=0.000
       9 -> 26         0.11227
      10 -> 29         0.68821

 Excited State 119:      Singlet-A1    16.2321 eV   76.38 nm  f=0.0208  <S**2>=0.000
       6 -> 14        -0.13254
       7 -> 23        -0.12656
      12 -> 35         0.65467

 Excited State 120:      Singlet-B1    16.2742 eV   76.18 nm  f=0.0897  <S**2>=0.000
       7 -> 25        -0.19310
       8 -> 27        -0.15126
      12 -> 36         0.60689
      12 -> 38        -0.21914

 Excited State 121:      Singlet-B2    16.2746 eV   76.18 nm  f=0.0127  <S**2>=0.000
      11 -> 30         0.27038
      13 -> 42         0.64271

 Excited State 122:      Singlet-B2    16.3170 eV   75.98 nm  f=0.1601  <S**2>=0.000
       6 -> 15         0.38067

 The electronic state is 1-A1.
 Alpha  occ. eigenvalues --  -18.79355  -9.96623  -9.96622  -0.93834  -0.64805
 Alpha  occ. eigenvalues --   -0.56401  -0.43306  -0.42155  -0.41935  -0.34944
 Alpha  occ. eigenvalues --   -0.33366  -0.27478  -0.21400
 Alpha virt. eigenvalues --    0.00334   0.03243   0.04560   0.06396   0.06436
 Alpha virt. eigenvalues --    0.08914   0.10655   0.10707   0.11235   0.14567
 Alpha virt. eigenvalues --    0.14801   0.15330   0.18524   0.18836   0.22324

 Mulliken charges:
               1
     1  C    0.970578
     2  O   -0.738240
     3  C    0.970578
     4  H   -0.365698
     5  H   -0.117880
     6  H   -0.117880
     7  H   -0.365698
     8  H   -0.117880
     9  H   -0.117880
 Sum of Mulliken charges =   0.00000

 Dipole moment (field-independent basis, Debye):
    X=              0.0000    Y=             -0.0000    Z=             -1.2120  Tot=              1.2120
 Quadrupole moment (field-independent basis, Debye-Ang):
   XX=            -20.7059   YY=            -18.0222   ZZ=            -21.8268
   XY=             -0.0000   XZ=              0.0000   YZ=             -0.0000

 Normal termination of Gaussian 16 at Mon Mar 21 19:58:58 2022.
