 Gaussian 16, Revision C.01,
 Gaussian 16:  EM64L-G16RevC.01  3-Jul-2019

 --------------------------------------------------------------------
 #P TD(Nstates=10000) blyp/Gen SCF(maxcycles=100) Int(Grid=ultrafine)
 --------------------------------------------------------------------

 ---------------------
 xGDB7_00001_tier4.com
 ---------------------
 Symbolic Z-matrix:
 Charge =  0 Multiplicity = 1

                         Standard orientation:
 ---------------------------------------------------------------------
 Center     Atomic      Atomic             Coordinates (Angstroms)
 Number     Number       Type             X           Y           Z
 ---------------------------------------------------------------------
      1          8           0       -1.028621   -0.395177   -0.000000
      2          7           0       -0.000000    0.526228   -0.000000
      3          6           0        1.132746   -0.030907    0.000000
      4          1           0       -1.816572    0.151791   -0.000000
      5          1           0        1.994262    0.623439    0.000000
      6          1           0        1.254802   -1.111965    0.000000
 ---------------------------------------------------------------------

 SCF Done:  E(RB-LYP) =  -169.661828482     A.U. after   14 cycles

 Excitation energies and oscillator strengths:

 Excited State   1:      Singlet-A"     5.6332 eV  220.10 nm  f=0.0005  <S**2>=0.000
      11 -> 13         0.70543
 This state for optimization and/or second-order correction.
 Total Energy, E(TD-HF/TD-DFT) =  -169.454811821
 Copying the excited state density for this state as the 1-particle RhoCI density.

 Excited State   2:      Singlet-A"     6.3733 eV  194.54 nm  f=0.0017  <S**2>=0.000
      12 -> 14         0.70591

 Excited State   3:      Singlet-A'     6.3734 eV  194.53 nm  f=0.0944  <S**2>=0.000
       9 -> 13         0.13857
      11 -> 14         0.28129
      11 -> 15        -0.10753
      12 -> 13         0.61479

 Excited State   4:      Singlet-A'     6.5527 eV  189.21 nm  f=0.0613  <S**2>=0.000
      11 -> 14         0.64518
      12 -> 13        -0.26031

 Excited State   5:      Singlet-A"     7.2110 eV  171.94 nm  f=0.0153  <S**2>=0.000
      12 -> 15         0.70661

 Excited State   6:      Singlet-A'     7.3773 eV  168.06 nm  f=0.0313  <S**2>=0.000
      11 -> 15         0.68795
      11 -> 16        -0.10435

 Excited State   7:      Singlet-A"     8.3528 eV  148.43 nm  f=0.0021  <S**2>=0.000
      12 -> 16         0.69019
      12 -> 17         0.14323

 Excited State   8:      Singlet-A"     8.5981 eV  144.20 nm  f=0.0059  <S**2>=0.000
      12 -> 16        -0.14091
      12 -> 17         0.68772

 Excited State   9:      Singlet-A'     8.6856 eV  142.75 nm  f=0.1100  <S**2>=0.000
      11 -> 16         0.49779
      11 -> 17         0.46687
      12 -> 18         0.14171

 Excited State  10:      Singlet-A'     8.7882 eV  141.08 nm  f=0.0893  <S**2>=0.000
      11 -> 16        -0.43366
      11 -> 17         0.52765
      12 -> 18        -0.12456

 Excited State  11:      Singlet-A"     8.9921 eV  137.88 nm  f=0.0004  <S**2>=0.000
      10 -> 13         0.70272

 Excited State  12:      Singlet-A"     9.2281 eV  134.35 nm  f=0.0318  <S**2>=0.000
      11 -> 18         0.70260

 Excited State  13:      Singlet-A'     9.3654 eV  132.39 nm  f=0.0146  <S**2>=0.000
      11 -> 16        -0.12453
      11 -> 19         0.23798
      11 -> 21        -0.10643
      12 -> 18         0.62626

 Excited State  14:      Singlet-A"     9.4482 eV  131.23 nm  f=0.0000  <S**2>=0.000
      12 -> 19         0.70502

 Excited State  15:      Singlet-A'     9.6101 eV  129.01 nm  f=0.0042  <S**2>=0.000
      11 -> 19         0.66081
      12 -> 18        -0.20763

 Excited State  16:      Singlet-A"     9.6469 eV  128.52 nm  f=0.0151  <S**2>=0.000
      12 -> 20         0.69480

 Excited State  17:      Singlet-A'     9.7753 eV  126.83 nm  f=0.0108  <S**2>=0.000
       9 -> 13         0.12154
      10 -> 14        -0.12396
      11 -> 20         0.67674

 Excited State  18:      Singlet-A'    10.0935 eV  122.84 nm  f=0.0237  <S**2>=0.000
       9 -> 13        -0.43721
      10 -> 14         0.49551
      11 -> 20         0.17607

 Excited State  19:      Singlet-A"    10.1254 eV  122.45 nm  f=0.0317  <S**2>=0.000
       9 -> 14         0.68935
      12 -> 21        -0.13450

 Excited State  20:      Singlet-A"    10.3050 eV  120.31 nm  f=0.0026  <S**2>=0.000
       8 -> 13         0.59674
       9 -> 14        -0.12538
      12 -> 21        -0.35133

 Excited State  21:      Singlet-A'    10.3258 eV  120.07 nm  f=0.2449  <S**2>=0.000
       9 -> 13         0.45176
      10 -> 14         0.47507
      11 -> 21        -0.10914
      12 -> 13        -0.11064
      12 -> 23        -0.11007

 Excited State  22:      Singlet-A"    10.4851 eV  118.25 nm  f=0.0058  <S**2>=0.000
       8 -> 13         0.36057
      12 -> 21         0.59388

 Excited State  23:      Singlet-A'    10.7124 eV  115.74 nm  f=0.0555  <S**2>=0.000
      10 -> 15        -0.13294
      11 -> 16        -0.10328
      11 -> 21         0.64779

 Excited State  24:      Singlet-A"    10.9389 eV  113.34 nm  f=0.0062  <S**2>=0.000
       9 -> 15         0.70556

 Excited State  25:      Singlet-A'    11.0510 eV  112.19 nm  f=0.0617  <S**2>=0.000
       8 -> 14        -0.10432
      10 -> 15         0.68183
      11 -> 21         0.11536

 Excited State  26:      Singlet-A'    11.3709 eV  109.04 nm  f=0.0148  <S**2>=0.000
       8 -> 14         0.60747
      12 -> 22         0.35096

 Excited State  27:      Singlet-A'    11.4925 eV  107.88 nm  f=0.1181  <S**2>=0.000
       8 -> 14        -0.33031
      12 -> 22         0.59300

 Excited State  28:      Singlet-A"    11.4967 eV  107.84 nm  f=0.0004  <S**2>=0.000
      11 -> 22         0.70447

 Excited State  29:      Singlet-A"    11.7403 eV  105.61 nm  f=0.0016  <S**2>=0.000
       7 -> 13        -0.14358
      11 -> 23         0.68633

 Excited State  30:      Singlet-A'    11.8722 eV  104.43 nm  f=0.1070  <S**2>=0.000
      10 -> 16        -0.23254
      10 -> 17        -0.13290
      12 -> 23         0.62302

 Excited State  31:      Singlet-A"    11.8729 eV  104.43 nm  f=0.0007  <S**2>=0.000
      12 -> 24         0.69863

 Excited State  32:      Singlet-A"    11.9973 eV  103.34 nm  f=0.0048  <S**2>=0.000
       7 -> 13         0.39833
       9 -> 16        -0.26324
      12 -> 25         0.51727

 Excited State  33:      Singlet-A"    12.1075 eV  102.40 nm  f=0.0271  <S**2>=0.000
       7 -> 13        -0.13514
       9 -> 16         0.53021
       9 -> 17         0.21639
      12 -> 25         0.37855

 Excited State  34:      Singlet-A'    12.1184 eV  102.31 nm  f=0.0068  <S**2>=0.000
       8 -> 15         0.16458
      11 -> 24         0.59236
      11 -> 25        -0.27195

 Excited State  35:      Singlet-A'    12.1642 eV  101.93 nm  f=0.0089  <S**2>=0.000
      10 -> 16        -0.27382
      11 -> 24         0.19944
      11 -> 25         0.59322

 Excited State  36:      Singlet-A"    12.2101 eV  101.54 nm  f=0.0337  <S**2>=0.000
       6 -> 13         0.14724
       7 -> 13         0.52167
       9 -> 16         0.30352
       9 -> 17         0.10129
      11 -> 23         0.13649
      12 -> 25        -0.26570

 Excited State  37:      Singlet-A'    12.2336 eV  101.35 nm  f=0.0028  <S**2>=0.000
       8 -> 15         0.55942
      10 -> 16         0.30428
      10 -> 17         0.21296
      11 -> 25         0.15663

 Excited State  38:      Singlet-A"    12.3819 eV  100.13 nm  f=0.0093  <S**2>=0.000
       9 -> 16        -0.21719
       9 -> 17         0.66295

 Excited State  39:      Singlet-A'    12.4272 eV   99.77 nm  f=0.0384  <S**2>=0.000
       7 -> 14        -0.12360
       8 -> 15         0.11703
       9 -> 18        -0.12364
      10 -> 16        -0.39422
      10 -> 17         0.45059
      11 -> 24        -0.18894
      11 -> 25        -0.17228

 Excited State  40:      Singlet-A'    12.5335 eV   98.92 nm  f=0.0178  <S**2>=0.000
       8 -> 15        -0.35139
      10 -> 16         0.26146
      10 -> 17         0.44720
      11 -> 24         0.11810
      11 -> 26        -0.10864
      12 -> 23         0.18017

 Excited State  41:      Singlet-A"    12.8813 eV   96.25 nm  f=0.0013  <S**2>=0.000
      10 -> 18         0.70341

 Excited State  42:      Singlet-A"    12.9822 eV   95.50 nm  f=0.0001  <S**2>=0.000
      12 -> 26         0.70256

 Excited State  43:      Singlet-A'    12.9900 eV   95.45 nm  f=0.0086  <S**2>=0.000
       7 -> 14        -0.20685
       8 -> 16         0.11596
       9 -> 18         0.61482
      10 -> 19        -0.18201

 Excited State  44:      Singlet-A'    13.0886 eV   94.73 nm  f=0.0146  <S**2>=0.000
       7 -> 14         0.52634
      10 -> 20        -0.21407
      11 -> 26         0.39379

 Excited State  45:      Singlet-A"    13.2110 eV   93.85 nm  f=0.0011  <S**2>=0.000
       9 -> 19         0.69707
       9 -> 20        -0.10313

 Excited State  46:      Singlet-A'    13.2858 eV   93.32 nm  f=0.0029  <S**2>=0.000
       7 -> 14        -0.18903
       8 -> 16         0.25627
      10 -> 19         0.53611
      10 -> 20         0.15475
      11 -> 26         0.26120

 Excited State  47:      Singlet-A"    13.4090 eV   92.46 nm  f=0.0913  <S**2>=0.000
       6 -> 13        -0.18618
       9 -> 19         0.10441
       9 -> 20         0.66892

 Excited State  48:      Singlet-A'    13.4090 eV   92.46 nm  f=0.0059  <S**2>=0.000
       7 -> 14        -0.26296
       8 -> 17        -0.27958
       9 -> 18        -0.11980
      10 -> 19        -0.17424
      10 -> 20        -0.10908
      11 -> 26         0.37352
      12 -> 27         0.33409

 Excited State  49:      Singlet-A'    13.5160 eV   91.73 nm  f=0.0478  <S**2>=0.000
       8 -> 17         0.33064
      11 -> 26        -0.15521
      12 -> 27         0.57877

 Excited State  50:      Singlet-A"    13.5751 eV   91.33 nm  f=0.0012  <S**2>=0.000
      11 -> 27         0.69838

 Excited State  51:      Singlet-A'    13.6058 eV   91.13 nm  f=0.0404  <S**2>=0.000
       7 -> 14         0.11658
       8 -> 16        -0.23340
       8 -> 19         0.14683
      10 -> 20         0.57391
      11 -> 26         0.16688

 Excited State  52:      Singlet-A'    13.7115 eV   90.42 nm  f=0.0857  <S**2>=0.000
       7 -> 15        -0.23831
       8 -> 16         0.37925
       8 -> 17         0.28280
       9 -> 18        -0.16435
      10 -> 19        -0.28890
      10 -> 20         0.14815
      12 -> 27        -0.13513

 Excited State  53:      Singlet-A'    13.8909 eV   89.26 nm  f=0.2057  <S**2>=0.000
       7 -> 14         0.10994
       7 -> 15         0.21929
       8 -> 16         0.39636
       8 -> 17        -0.39560
      10 -> 20         0.15983
      11 -> 26        -0.14808
      12 -> 27         0.11617

 Excited State  54:      Singlet-A'    14.0922 eV   87.98 nm  f=0.0124  <S**2>=0.000
       6 -> 14         0.10867
       7 -> 15         0.56710
       8 -> 17         0.17431
       8 -> 20        -0.14689
       9 -> 18        -0.10355
      10 -> 19        -0.11770
      10 -> 21        -0.17974

 Excited State  55:      Singlet-A"    14.1365 eV   87.70 nm  f=0.0006  <S**2>=0.000
       8 -> 18         0.67983
       9 -> 21         0.17547

 Excited State  56:      Singlet-A"    14.1819 eV   87.42 nm  f=0.0010  <S**2>=0.000
       8 -> 18        -0.17703
       9 -> 21         0.67862

 Excited State  57:      Singlet-A"    14.3320 eV   86.51 nm  f=0.0293  <S**2>=0.000
       6 -> 13         0.44127
       9 -> 20         0.10216
      10 -> 22        -0.12779
      12 -> 28         0.50293

 Excited State  58:      Singlet-A'    14.3631 eV   86.32 nm  f=0.1170  <S**2>=0.000
       7 -> 15         0.15121
       7 -> 16        -0.12326
      10 -> 21         0.63189
      11 -> 29         0.10458

 Excited State  59:      Singlet-A"    14.5673 eV   85.11 nm  f=0.0465  <S**2>=0.000
       6 -> 13        -0.41231
       9 -> 20        -0.11226
      10 -> 22         0.22843
      12 -> 28         0.48559

 Excited State  60:      Singlet-A'    14.5901 eV   84.98 nm  f=0.0695  <S**2>=0.000
       8 -> 19         0.45187
       8 -> 20         0.10682
      11 -> 28         0.51137

 Excited State  61:      Singlet-A'    14.6509 eV   84.63 nm  f=0.0075  <S**2>=0.000
       8 -> 19        -0.16248
       8 -> 20         0.65657

 Excited State  62:      Singlet-A'    14.7543 eV   84.03 nm  f=0.0874  <S**2>=0.000
       7 -> 16         0.12667
       7 -> 17        -0.10464
       8 -> 19         0.44715
       8 -> 20         0.10288
      11 -> 28        -0.42338
      12 -> 30        -0.14605

 Excited State  63:      Singlet-A"    14.8914 eV   83.26 nm  f=0.0426  <S**2>=0.000
      12 -> 29         0.70097

 Excited State  64:      Singlet-A'    14.9929 eV   82.70 nm  f=0.0416  <S**2>=0.000
       7 -> 16         0.18034
      11 -> 29         0.67056

 Excited State  65:      Singlet-A'    15.0842 eV   82.19 nm  f=0.0140  <S**2>=0.000
       6 -> 14         0.58523
       7 -> 16         0.14559
       7 -> 17         0.11464
       8 -> 21        -0.11484
       9 -> 22        -0.12707
      12 -> 30         0.26057

 Excited State  66:      Singlet-A'    15.1917 eV   81.61 nm  f=0.0801  <S**2>=0.000
       7 -> 16         0.36552
       7 -> 17         0.19588
       8 -> 21        -0.11582
       9 -> 22         0.46555
       9 -> 23         0.10269
      10 -> 24        -0.13744
      11 -> 31        -0.13497
      12 -> 30        -0.14406

 Excited State  67:      Singlet-A'    15.2244 eV   81.44 nm  f=0.0274  <S**2>=0.000
       7 -> 16        -0.16457
       7 -> 17        -0.14899
       9 -> 22         0.40758
       9 -> 23        -0.23267
      12 -> 30         0.43215

 Excited State  68:      Singlet-A"    15.2348 eV   81.38 nm  f=0.0207  <S**2>=0.000
       6 -> 13         0.12548
      10 -> 22         0.47479
      10 -> 23         0.20520
      11 -> 30         0.44965

 Excited State  69:      Singlet-A'    15.3059 eV   81.00 nm  f=0.1015  <S**2>=0.000
       6 -> 14         0.18078
       7 -> 16        -0.32051
       7 -> 17         0.43310
       8 -> 21         0.18556
       9 -> 22         0.15536
       9 -> 23        -0.11110
      12 -> 30        -0.23568

 Excited State  70:      Singlet-A"    15.3281 eV   80.89 nm  f=0.1230  <S**2>=0.000
       6 -> 13        -0.12858
      10 -> 22        -0.35774
      10 -> 23        -0.11338
      11 -> 30         0.50333
      12 -> 31        -0.23885

 Excited State  71:      Singlet-A"    15.3880 eV   80.57 nm  f=0.0013  <S**2>=0.000
      10 -> 23         0.55264
      11 -> 30        -0.14720
      12 -> 31        -0.39689

 Excited State  72:      Singlet-A"    15.4261 eV   80.37 nm  f=0.0397  <S**2>=0.000
      10 -> 22        -0.21666
      10 -> 23         0.36382
      11 -> 30         0.12165
      12 -> 31         0.53287

 Excited State  73:      Singlet-A'    15.4444 eV   80.28 nm  f=0.0277  <S**2>=0.000
       6 -> 14        -0.16330
       6 -> 15         0.17400
       7 -> 16         0.14737
       7 -> 17         0.36850
       8 -> 21         0.17616
       9 -> 22        -0.16244
       9 -> 23        -0.23334
      10 -> 24        -0.17907
      10 -> 25         0.10805
      11 -> 29        -0.10249
      12 -> 30         0.26858

 Excited State  74:      Singlet-A'    15.4837 eV   80.07 nm  f=0.0204  <S**2>=0.000
       8 -> 21        -0.29069
       9 -> 23         0.16504
      11 -> 31         0.59653

 Excited State  75:      Singlet-A'    15.5434 eV   79.77 nm  f=0.0081  <S**2>=0.000
       7 -> 17         0.10542
       8 -> 21         0.23813
       9 -> 23         0.49453
      10 -> 24         0.25197
      12 -> 30         0.22040

 Excited State  76:      Singlet-A'    15.6105 eV   79.42 nm  f=0.0165  <S**2>=0.000
       6 -> 15         0.17637
       7 -> 17         0.14749
       8 -> 21        -0.39524
       9 -> 23        -0.10773
      10 -> 24         0.39948
      10 -> 25         0.12404
      11 -> 31        -0.23855

 Excited State  77:      Singlet-A"    15.6286 eV   79.33 nm  f=0.0001  <S**2>=0.000
       9 -> 24         0.69717

 Excited State  78:      Singlet-A'    15.7227 eV   78.86 nm  f=0.1225  <S**2>=0.000
       6 -> 15        -0.19740
       7 -> 16        -0.16575
       8 -> 21        -0.16275
       9 -> 23         0.11719
      10 -> 24        -0.35700
      10 -> 25         0.43304
      11 -> 31        -0.16982
      11 -> 32        -0.12415

 Excited State  79:      Singlet-A"    15.7985 eV   78.48 nm  f=0.0029  <S**2>=0.000
       9 -> 25         0.68628

 Excited State  80:      Singlet-A"    15.8254 eV   78.35 nm  f=0.0006  <S**2>=0.000
       7 -> 18         0.69890

 Excited State  81:      Singlet-A"    16.0034 eV   77.47 nm  f=0.0000  <S**2>=0.000
      12 -> 32         0.69766

 Excited State  82:      Singlet-A'    16.0168 eV   77.41 nm  f=0.0894  <S**2>=0.000
       6 -> 15        -0.26992
       7 -> 20         0.18321
       9 -> 23        -0.10090
      10 -> 24         0.17468
      10 -> 25         0.30370
      11 -> 32         0.47473

 Excited State  83:      Singlet-A'    16.0755 eV   77.13 nm  f=0.0216  <S**2>=0.000
       6 -> 14         0.10723
       6 -> 15         0.34774
       7 -> 17        -0.10164
       7 -> 19        -0.15702
       7 -> 20         0.26644
       8 -> 21         0.14689
      10 -> 25         0.34298
      11 -> 32        -0.23141

 Excited State  84:      Singlet-A'    16.2677 eV   76.21 nm  f=0.0778  <S**2>=0.000
       6 -> 15        -0.25954
       7 -> 19         0.38139
       7 -> 20         0.28824
      11 -> 32        -0.34878
      11 -> 33         0.14096
      11 -> 34         0.11567

 Excited State  85:      Singlet-A"    16.3762 eV   75.71 nm  f=0.0054  <S**2>=0.000
       8 -> 22         0.59664
      12 -> 33         0.36749

 Excited State  86:      Singlet-A'    16.3968 eV   75.61 nm  f=0.0660  <S**2>=0.000
       6 -> 15         0.25386
       7 -> 19         0.53010
       9 -> 23         0.10398
      11 -> 32         0.15862
      11 -> 33        -0.22070

 Excited State  87:      Singlet-A'    16.4949 eV   75.16 nm  f=0.0235  <S**2>=0.000
       7 -> 19         0.11938
       7 -> 20        -0.33516
      10 -> 25         0.12696
      10 -> 26         0.13207
      11 -> 33         0.52773

 Excited State  88:      Singlet-A"    16.5804 eV   74.78 nm  f=0.0597  <S**2>=0.000
       8 -> 22        -0.23279
       9 -> 26        -0.16855
      12 -> 33         0.26834
      12 -> 34         0.57724

 Excited State  89:      Singlet-A"    16.5909 eV   74.73 nm  f=0.0549  <S**2>=0.000
       8 -> 22        -0.23980
       9 -> 26        -0.15909
      12 -> 33         0.48321
      12 -> 34        -0.39536

 Excited State  90:      Singlet-A'    16.6175 eV   74.61 nm  f=0.0116  <S**2>=0.000
       6 -> 15        -0.13282
       7 -> 16         0.10747
       7 -> 20        -0.27967
      10 -> 26         0.42550
      11 -> 32        -0.15801
      11 -> 33        -0.34436
      12 -> 35        -0.11920

 Excited State  91:      Singlet-A"    16.6699 eV   74.38 nm  f=0.0002  <S**2>=0.000
       8 -> 23         0.70542

 Excited State  92:      Singlet-A"    16.7747 eV   73.91 nm  f=0.0757  <S**2>=0.000
       8 -> 22        -0.12984
       9 -> 26         0.65918
      12 -> 33         0.15249

 Excited State  93:      Singlet-A'    16.8595 eV   73.54 nm  f=0.1114  <S**2>=0.000
       6 -> 16         0.13562
       7 -> 20         0.17147
       8 -> 24        -0.20239
      10 -> 26         0.48461
      11 -> 33         0.11308
      11 -> 34         0.24746
      12 -> 35         0.16042

 Excited State  94:      Singlet-A'    16.9134 eV   73.31 nm  f=0.0021  <S**2>=0.000
       6 -> 16        -0.34775
       8 -> 24         0.43836
      11 -> 34         0.39634

 Excited State  95:      Singlet-A'    16.9285 eV   73.24 nm  f=0.0425  <S**2>=0.000
       7 -> 20        -0.16987
       8 -> 24        -0.29159
       8 -> 25         0.36528
      10 -> 26        -0.20017
      11 -> 34         0.39480

 Excited State  96:      Singlet-A'    17.1166 eV   72.44 nm  f=0.0331  <S**2>=0.000
       7 -> 20         0.13214
       8 -> 24         0.21512
       8 -> 25         0.56503
       9 -> 27         0.19191
      11 -> 34        -0.16026

 Excited State  97:      Singlet-A'    17.1618 eV   72.24 nm  f=0.0156  <S**2>=0.000
       6 -> 16         0.28736
       6 -> 17         0.29976
       7 -> 21         0.49545
       8 -> 24         0.20098
      12 -> 35        -0.11742

 Excited State  98:      Singlet-A'    17.2376 eV   71.93 nm  f=0.0276  <S**2>=0.000
       6 -> 17         0.45665
       7 -> 21        -0.24827
       9 -> 27         0.44223
      12 -> 35        -0.11570

 Excited State  99:      Singlet-A"    17.2451 eV   71.90 nm  f=0.0852  <S**2>=0.000
      10 -> 27         0.69407

 Excited State 100:      Singlet-A'    17.2848 eV   71.73 nm  f=0.0457  <S**2>=0.000
       6 -> 16        -0.16737
       6 -> 17        -0.16255
       7 -> 21         0.38130
       8 -> 24        -0.16210
       9 -> 27         0.43954
      12 -> 35         0.23845

 Excited State 101:      Singlet-A'    17.4780 eV   70.94 nm  f=0.0330  <S**2>=0.000
       6 -> 16        -0.20759
       6 -> 17         0.34581
       8 -> 25         0.11013
       9 -> 27        -0.19332
      11 -> 34        -0.12893
      11 -> 36         0.15348
      12 -> 35         0.43701

 Excited State 102:      Singlet-A"    17.5744 eV   70.55 nm  f=0.0124  <S**2>=0.000
      11 -> 35         0.70299

 Excited State 103:      Singlet-A"    17.7664 eV   69.79 nm  f=0.0020  <S**2>=0.000
       6 -> 18         0.69474

 Excited State 104:      Singlet-A"    17.8734 eV   69.37 nm  f=0.0002  <S**2>=0.000
      12 -> 36         0.69728

 Excited State 105:      Singlet-A'    17.9916 eV   68.91 nm  f=0.0376  <S**2>=0.000
       6 -> 16         0.24883
       6 -> 17        -0.10161
       6 -> 19        -0.18208
       6 -> 20         0.12262
       6 -> 21         0.12973
       7 -> 24         0.21207
       8 -> 24         0.11846
       8 -> 26        -0.21708
      11 -> 36         0.31875
      12 -> 35         0.24554

 Excited State 106:      Singlet-A'    18.0291 eV   68.77 nm  f=0.0378  <S**2>=0.000
       6 -> 19         0.11812
       8 -> 26         0.45352
      11 -> 36         0.50246

 Excited State 107:      Singlet-A'    18.1290 eV   68.39 nm  f=0.0460  <S**2>=0.000
       6 -> 16         0.13152

 The electronic state is 1-A'.
 Alpha  occ. eigenvalues --  -18.84179 -14.07906  -9.95747  -0.99906  -0.78101
 Alpha  occ. eigenvalues --   -0.55327  -0.48236  -0.42046  -0.37416  -0.37398
 Alpha  occ. eigenvalues --   -0.24048  -0.23667
 Alpha virt. eigenvalues --   -0.04925  -0.00529   0.02734   0.06647   0.07819
 Alpha virt. eigenvalues --    0.09874   0.11071   0.11504   0.14375   0.18181
 Alpha virt. eigenvalues --    0.19237   0.19843   0.20527   0.24061   0.25906

 Mulliken charges:
               1
     1  O   -0.262258
     2  N    0.004562
     3  C    0.794779
     4  H    0.154514
     5  H   -0.402224
     6  H   -0.289375
 Sum of Mulliken charges =  -0.00000

 Dipole moment (field-independent basis, Debye):
    X=              0.1455    Y=             -0.1414    Z=              0.0000  Tot=              0.2029
 Quadrupole moment (field-independent basis, Debye-Ang):
   XX=            -12.5846   YY=            -19.8585   ZZ=            -19.2570
   XY=             -1.3936   XZ=              0.0000   YZ=              0.0000

 Normal termination of Gaussian 16 at Mon Mar 21 20:07:32 2022.
