 Gaussian 16, Revision C.01,
 Gaussian 16:  EM64L-G16RevC.01  3-Jul-2019

 --------------------------------------------------------------------
 #P TD(Nstates=10000) blyp/Gen SCF(maxcycles=100) Int(Grid=ultrafine)
 --------------------------------------------------------------------

 ---------------------
 xGDB7_00001_tier4.com
 ---------------------
 Symbolic Z-matrix:
 Charge =  0 Multiplicity = 1

                         Standard orientation:
 ---------------------------------------------------------------------
 Center     Atomic      Atomic             Coordinates (Angstroms)
 Number     Number       Type             X           Y           Z
 ---------------------------------------------------------------------
      1          6           0        0.000000    0.000000   -0.524273
      2          8           0        0.000000    0.000000    0.670793
      3          1           0        0.000000    0.939221   -1.110351
      4          1           0       -0.000000   -0.939221   -1.110351
 ---------------------------------------------------------------------

 SCF Done:  E(RB-LYP) =  -114.399170106     A.U. after   11 cycles

 Excitation energies and oscillator strengths:

 Excited State   1:      Singlet-A2     3.9217 eV  316.15 nm  f=0.0000  <S**2>=0.000
       8 ->  9         0.70739
 This state for optimization and/or second-order correction.
 Total Energy, E(TD-HF/TD-DFT) =  -114.255049052
 Copying the excited state density for this state as the 1-particle RhoCI density.

 Excited State   2:      Singlet-B2     6.4308 eV  192.80 nm  f=0.0312  <S**2>=0.000
       8 -> 10         0.70595

 Excited State   3:      Singlet-A1     8.0241 eV  154.52 nm  f=0.0880  <S**2>=0.000
       8 -> 11         0.70354

 Excited State   4:      Singlet-B2     8.0907 eV  153.24 nm  f=0.0444  <S**2>=0.000
       8 -> 12         0.70340

 Excited State   5:      Singlet-A2     8.7251 eV  142.10 nm  f=0.0000  <S**2>=0.000
       8 -> 13         0.70704

 Excited State   6:      Singlet-B1     8.9069 eV  139.20 nm  f=0.0007  <S**2>=0.000
       6 ->  9         0.70431

 Excited State   7:      Singlet-B2     9.2871 eV  133.50 nm  f=0.0318  <S**2>=0.000
       8 -> 14         0.68819
       8 -> 15         0.14696

 Excited State   8:      Singlet-A1     9.4561 eV  131.12 nm  f=0.0580  <S**2>=0.000
       7 ->  9         0.57057
       8 -> 16        -0.40115

 Excited State   9:      Singlet-A2     9.8441 eV  125.95 nm  f=0.0000  <S**2>=0.000
       5 ->  9         0.70639

 Excited State  10:      Singlet-B2    10.0035 eV  123.94 nm  f=0.0197  <S**2>=0.000
       8 -> 14        -0.14031
       8 -> 15         0.68917

 Excited State  11:      Singlet-B1    10.2869 eV  120.53 nm  f=0.0292  <S**2>=0.000
       7 -> 10         0.70655

 Excited State  12:      Singlet-A1    10.8448 eV  114.33 nm  f=0.1185  <S**2>=0.000
       6 -> 10        -0.40009
       7 ->  9         0.31004
       8 -> 16         0.46998

 Excited State  13:      Singlet-B1    10.9934 eV  112.78 nm  f=0.0142  <S**2>=0.000
       8 -> 17         0.70368

 Excited State  14:      Singlet-A1    11.3845 eV  108.91 nm  f=0.1570  <S**2>=0.000
       6 -> 10         0.57588
       7 ->  9         0.20832
       8 -> 16         0.30372

 Excited State  15:      Singlet-A2    11.7811 eV  105.24 nm  f=0.0000  <S**2>=0.000
       7 -> 11         0.29174
       8 -> 18         0.64369

 Excited State  16:      Singlet-A2    11.8401 eV  104.72 nm  f=0.0000  <S**2>=0.000
       7 -> 11         0.64399
       8 -> 18        -0.29113

 Excited State  17:      Singlet-B1    12.0233 eV  103.12 nm  f=0.0574  <S**2>=0.000
       7 -> 12         0.70072

 Excited State  18:      Singlet-B2    12.4729 eV   99.40 nm  f=0.0957  <S**2>=0.000
       5 -> 10         0.69112
       6 -> 11         0.12670

 Excited State  19:      Singlet-B2    12.7118 eV   97.54 nm  f=0.0775  <S**2>=0.000
       5 -> 10        -0.12170
       6 -> 11         0.69361

 Excited State  20:      Singlet-A1    12.7722 eV   97.07 nm  f=0.0385  <S**2>=0.000
       6 -> 12        -0.45129
       7 -> 13         0.52789

 Excited State  21:      Singlet-A1    12.9158 eV   95.99 nm  f=0.1058  <S**2>=0.000
       5 -> 11         0.12350
       6 -> 12         0.53756
       7 -> 13         0.42435

 Excited State  22:      Singlet-B1    13.0744 eV   94.83 nm  f=0.0039  <S**2>=0.000
       4 ->  9        -0.11920
       7 -> 14         0.69685

 Excited State  23:      Singlet-B1    13.4664 eV   92.07 nm  f=0.0223  <S**2>=0.000
       6 -> 13         0.70023

 Excited State  24:      Singlet-B2    13.5469 eV   91.52 nm  f=0.0013  <S**2>=0.000
       5 -> 12         0.11132
       8 -> 19         0.69233

 Excited State  25:      Singlet-B1    13.6222 eV   91.02 nm  f=0.0033  <S**2>=0.000
       4 ->  9         0.37753
       7 -> 15         0.59104

 Excited State  26:      Singlet-A1    13.8216 eV   89.70 nm  f=0.1679  <S**2>=0.000
       5 -> 11         0.13857
       6 -> 14         0.25000
       8 -> 20         0.63438

 Excited State  27:      Singlet-A2    13.8599 eV   89.46 nm  f=0.0000  <S**2>=0.000
       7 -> 16         0.70678

 Excited State  28:      Singlet-A1    14.0112 eV   88.49 nm  f=0.0501  <S**2>=0.000
       6 -> 14         0.64779
       8 -> 20        -0.24319

 Excited State  29:      Singlet-B2    14.0605 eV   88.18 nm  f=0.0071  <S**2>=0.000
       5 -> 12         0.69543
       8 -> 19        -0.10917

 Excited State  30:      Singlet-A1    14.3303 eV   86.52 nm  f=0.0065  <S**2>=0.000
       4 -> 10         0.16325
       5 -> 11         0.60748
       6 -> 15         0.23462
       7 -> 13        -0.10655
       8 -> 20        -0.10897

 Excited State  31:      Singlet-B2    14.4180 eV   85.99 nm  f=0.0518  <S**2>=0.000
       5 -> 14        -0.11019
       8 -> 21         0.68607

 Excited State  32:      Singlet-B1    14.4848 eV   85.60 nm  f=0.2260  <S**2>=0.000
       4 ->  9         0.54524
       5 -> 17        -0.14853
       7 -> 15        -0.36822

 Excited State  33:      Singlet-A2    14.7071 eV   84.30 nm  f=0.0000  <S**2>=0.000
       5 -> 13         0.70696

 Excited State  34:      Singlet-A1    14.7326 eV   84.16 nm  f=0.0193  <S**2>=0.000
       4 -> 10        -0.10411
       5 -> 11        -0.19247
       6 -> 15         0.64581
       8 -> 22         0.11020

 Excited State  35:      Singlet-B2    14.7422 eV   84.10 nm  f=0.0024  <S**2>=0.000
       6 -> 16         0.69163
       7 -> 17         0.11234

 Excited State  36:      Singlet-B2    14.8889 eV   83.27 nm  f=0.0218  <S**2>=0.000
       5 -> 14         0.24540
       7 -> 17         0.64768

 Excited State  37:      Singlet-B2    15.3252 eV   80.90 nm  f=0.0179  <S**2>=0.000
       5 -> 14        -0.12532
       8 -> 23         0.68890

 Excited State  38:      Singlet-A1    15.4872 eV   80.06 nm  f=0.0629  <S**2>=0.000
       4 -> 10         0.11848
       7 -> 18        -0.21476
       8 -> 22         0.63963

 Excited State  39:      Singlet-B2    15.5955 eV   79.50 nm  f=0.2229  <S**2>=0.000
       5 -> 14         0.52830
       5 -> 15         0.39419
       7 -> 17        -0.17586
       8 -> 21         0.10095
       8 -> 23         0.10498

 Excited State  40:      Singlet-A2    15.7014 eV   78.96 nm  f=0.0000  <S**2>=0.000
       6 -> 17         0.70697

 Excited State  41:      Singlet-A1    15.8526 eV   78.21 nm  f=0.0297  <S**2>=0.000
       5 -> 16         0.46480
       7 -> 18         0.48850
       8 -> 22         0.17479

 Excited State  42:      Singlet-B1    15.9251 eV   77.85 nm  f=0.0861  <S**2>=0.000
       8 -> 24         0.69594

 Excited State  43:      Singlet-A1    15.9436 eV   77.76 nm  f=0.0070  <S**2>=0.000
       4 -> 10         0.51945
       5 -> 16         0.32455
       7 -> 18        -0.27609
       8 -> 22        -0.12671

 Excited State  44:      Singlet-B2    16.1406 eV   76.82 nm  f=0.2431  <S**2>=0.000
       5 -> 14        -0.33542
       5 -> 15         0.57854
       7 -> 17         0.14316

 Excited State  45:      Singlet-A2    16.5287 eV   75.01 nm  f=0.0000  <S**2>=0.000
       8 -> 25         0.70690

 Excited State  46:      Singlet-B1    16.5918 eV   74.73 nm  f=0.0020  <S**2>=0.000
       5 -> 17        -0.11948
       6 -> 18         0.69276

 Excited State  47:      Singlet-A1    16.7408 eV   74.06 nm  f=0.0219  <S**2>=0.000
       4 -> 10        -0.37216
       4 -> 12        -0.17607
       5 -> 11         0.14828
       5 -> 16         0.37766
       7 -> 18        -0.31352
       8 -> 27        -0.13794

 Excited State  48:      Singlet-B2    16.7460 eV   74.04 nm  f=0.0004  <S**2>=0.000
       8 -> 26         0.70183

 Excited State  49:      Singlet-B1    17.2684 eV   71.80 nm  f=0.3108  <S**2>=0.000
       4 ->  9         0.11752
       5 -> 17         0.65329
       7 -> 19        -0.12240
       7 -> 21        -0.10883

 Excited State  50:      Singlet-B2    17.3583 eV   71.43 nm  f=0.0306  <S**2>=0.000
       4 -> 11         0.70074

 Excited State  51:      Singlet-B1    17.4526 eV   71.04 nm  f=0.0030  <S**2>=0.000
       7 -> 19         0.69077

 Excited State  52:      Singlet-A1    17.4595 eV   71.01 nm  f=0.0874  <S**2>=0.000
       4 -> 10        -0.10682
       4 -> 12         0.65496
       5 -> 16         0.10481
       6 -> 19        -0.11276

 Excited State  53:      Singlet-A2    17.6390 eV   70.29 nm  f=0.0000  <S**2>=0.000
       7 -> 20         0.70336

 Excited State  54:      Singlet-A2    17.7504 eV   69.85 nm  f=0.0000  <S**2>=0.000
       5 -> 18         0.70331

 Excited State  55:      Singlet-B1    18.0392 eV   68.73 nm  f=0.0035  <S**2>=0.000
       4 -> 13         0.68462
       7 -> 21         0.13248

 Excited State  56:      Singlet-B1    18.2921 eV   67.78 nm  f=0.0584  <S**2>=0.000
       4 -> 13        -0.11347
       7 -> 21         0.68189

 Excited State  57:      Singlet-A1    18.3038 eV   67.74 nm  f=0.0169  <S**2>=0.000
       6 -> 19         0.62240
       8 -> 27         0.31328

 Excited State  58:      Singlet-B2    18.5119 eV   66.98 nm  f=0.0184  <S**2>=0.000
       6 -> 20         0.70128

 Excited State  59:      Singlet-A1    18.6583 eV   66.45 nm  f=0.0565  <S**2>=0.000
       4 -> 14         0.64336
       6 -> 21         0.18403
       8 -> 27         0.15786

 Excited State  60:      Singlet-A1    19.0076 eV   65.23 nm  f=0.0002  <S**2>=0.000
       4 -> 14        -0.15137
       4 -> 15        -0.36624
       6 -> 19        -0.17955
       6 -> 21         0.44398
       8 -> 27         0.29664

 Excited State  61:      Singlet-A2    19.1677 eV   64.68 nm  f=0.0000  <S**2>=0.000
       7 -> 22         0.70669

 Excited State  62:      Singlet-B2    19.2761 eV   64.32 nm  f=0.0122  <S**2>=0.000
       4 -> 16         0.65799
       5 -> 19        -0.21583

 Excited State  63:      Singlet-A1    19.3093 eV   64.21 nm  f=0.0128  <S**2>=0.000
       4 -> 14        -0.18872
       4 -> 15         0.58243
       6 -> 21         0.29869
       8 -> 27         0.10513

 Excited State  64:      Singlet-B1    19.4399 eV   63.78 nm  f=0.1405  <S**2>=0.000
       7 -> 23         0.68427

 Excited State  65:      Singlet-B2    19.5245 eV   63.50 nm  f=0.0064  <S**2>=0.000
       5 -> 19         0.51450
       8 -> 28         0.46508

 Excited State  66:      Singlet-A1    19.5702 eV   63.35 nm  f=0.0463  <S**2>=0.000
       5 -> 20        -0.17958
       6 -> 19        -0.18939
       6 -> 21        -0.37762
       6 -> 26         0.22089
       7 -> 25        -0.22579
       8 -> 27         0.38507

 Excited State  67:      Singlet-B2    19.7610 eV   62.74 nm  f=0.0878  <S**2>=0.000
       4 -> 16        -0.20008
       5 -> 19        -0.40644
       5 -> 21        -0.14622
       8 -> 28         0.50085

 Excited State  68:      Singlet-B2    19.8334 eV   62.51 nm  f=0.0276  <S**2>=0.000
       6 -> 22        -0.27428
       7 -> 24         0.63947

 Excited State  69:      Singlet-A1    19.8526 eV   62.45 nm  f=0.0401  <S**2>=0.000
       5 -> 20         0.66361
       6 -> 21        -0.10416
       6 -> 26         0.12521
       8 -> 27         0.10941

 Excited State  70:      Singlet-A1    20.0838 eV   61.73 nm  f=0.0157  <S**2>=0.000
       6 -> 23         0.70073

 Excited State  71:      Singlet-B2    20.1597 eV   61.50 nm  f=0.0528  <S**2>=0.000
       6 -> 22         0.62351
       7 -> 24         0.23256
       8 -> 30         0.18882

 Excited State  72:      Singlet-A2    20.3055 eV   61.06 nm  f=0.0000  <S**2>=0.000
       4 -> 17         0.70463

 Excited State  73:      Singlet-B2    20.4104 eV   60.75 nm  f=0.0156  <S**2>=0.000
       5 -> 21         0.68678

 Excited State  74:      Singlet-A2    20.6445 eV   60.06 nm  f=0.0000  <S**2>=0.000
       6 -> 24         0.70647

 Excited State  75:      Singlet-A1    20.6476 eV   60.05 nm  f=0.0000  <S**2>=0.000
       6 -> 26         0.20040
       7 -> 25         0.61353
       8 -> 27         0.10598
       8 -> 29        -0.21732

 Excited State  76:      Singlet-B1    20.7318 eV   59.80 nm  f=0.0024  <S**2>=0.000
       7 -> 26         0.69525

 Excited State  77:      Singlet-B2    20.9479 eV   59.19 nm  f=0.0589  <S**2>=0.000
       5 -> 23        -0.26898
       6 -> 22        -0.10041
       8 -> 30         0.61562
       8 -> 32        -0.13551

 Excited State  78:      Singlet-A2    20.9689 eV   59.13 nm  f=0.0000  <S**2>=0.000
       8 -> 31         0.70578

 Excited State  79:      Singlet-A1    21.0817 eV   58.81 nm  f=0.0955  <S**2>=0.000
       5 -> 22        -0.10966
       7 -> 25         0.19071
       8 -> 29         0.64912

 Excited State  80:      Singlet-B1    21.1222 eV   58.70 nm  f=0.0413  <S**2>=0.000
       4 -> 18         0.67749
       6 -> 25        -0.18214

 Excited State  81:      Singlet-B1    21.3523 eV   58.07 nm  f=0.0011  <S**2>=0.000
       4 -> 18         0.17498
       6 -> 25         0.67939

 Excited State  82:      Singlet-B2    21.3929 eV   57.96 nm  f=0.0589  <S**2>=0.000
       5 -> 23         0.62931
       8 -> 30         0.18858
       8 -> 32        -0.21936

 Excited State  83:      Singlet-A1    21.8637 eV   56.71 nm  f=0.0054  <S**2>=0.000
       4 -> 19         0.26983
       5 -> 22         0.61596

 Excited State  84:      Singlet-B1    21.9794 eV   56.41 nm  f=0.0528  <S**2>=0.000
       5 -> 24         0.69192

 Excited State  85:      Singlet-A2    22.1591 eV   55.95 nm  f=0.0000  <S**2>=0.000
       7 -> 27         0.70670

 Excited State  86:      Singlet-B2    22.2662 eV   55.68 nm  f=0.1625  <S**2>=0.000
       5 -> 23         0.11963
       5 -> 26         0.22484
       6 -> 27        -0.15243
       8 -> 30         0.12545
       8 -> 32         0.61188

 Excited State  87:      Singlet-A2    22.5059 eV   55.09 nm  f=0.0000  <S**2>=0.000
       5 -> 25         0.70685

 Excited State  88:      Singlet-A1    22.7128 eV   54.59 nm  f=0.4557  <S**2>=0.000
       4 -> 19         0.24141
       6 -> 26         0.55127
       7 -> 25        -0.10907
       7 -> 31         0.10112
       8 -> 27        -0.17101

 Excited State  89:      Singlet-B2    23.0237 eV   53.85 nm  f=0.0042  <S**2>=0.000
       4 -> 20         0.42671
       5 -> 26         0.30945
       6 -> 27         0.46609

 Excited State  90:      Singlet-B2    23.1501 eV   53.56 nm  f=0.0212  <S**2>=0.000
       4 -> 20         0.55745
       5 -> 26        -0.25827
       6 -> 27        -0.34040

 Excited State  91:      Singlet-A1    23.2245 eV   53.39 nm  f=0.0006  <S**2>=0.000
       4 -> 19         0.51342
       4 -> 21         0.34102
       5 -> 22        -0.12892
       5 -> 27        -0.16575
       6 -> 26        -0.19114

 Excited State  92:      Singlet-B1    23.3680 eV   53.06 nm  f=0.0001  <S**2>=0.000
       3 ->  9        -0.21041
       7 -> 28         0.67321

 Excited State  93:      Singlet-B2    23.4341 eV   52.91 nm  f=0.2387  <S**2>=0.000
       5 -> 26         0.50631
       6 -> 27        -0.36805
       6 -> 29        -0.13720
       8 -> 30        -0.10979
       8 -> 32        -0.19480

 Excited State  94:      Singlet-B1    23.7039 eV   52.31 nm  f=0.1103  <S**2>=0.000
       3 ->  9        -0.10793
       7 -> 30        -0.13862
       8 -> 33         0.67018

 Excited State  95:      Singlet-A1    24.1272 eV   51.39 nm  f=0.0867  <S**2>=0.000
       4 -> 19        -0.18644
       4 -> 21         0.50513
       4 -> 23         0.14965
       6 -> 28        -0.39143

 Excited State  96:      Singlet-A2    24.2138 eV   51.20 nm  f=0.0000  <S**2>=0.000
       8 -> 34         0.70648

 Excited State  97:      Singlet-A1    24.4738 eV   50.66 nm  f=0.0233  <S**2>=0.000
       4 -> 19        -0.12342
       4 -> 21         0.20521
       4 -> 23         0.33922
       5 -> 27        -0.14616
       6 -> 28         0.47126
       6 -> 30        -0.13741
       7 -> 31        -0.18436

 Excited State  98:      Singlet-A2    24.5522 eV   50.50 nm  f=0.0000  <S**2>=0.000
       7 -> 29         0.70686

 Excited State  99:      Singlet-A1    24.5947 eV   50.41 nm  f=0.0178  <S**2>=0.000
       4 -> 21         0.13499
       4 -> 23        -0.25867
       5 -> 27         0.52349
       6 -> 28         0.19348
       7 -> 31        -0.28774

 Excited State 100:      Singlet-A1    24.6626 eV   50.27 nm  f=0.0484  <S**2>=0.000
       4 -> 19         0.15149
       4 -> 21        -0.14575
       4 -> 23         0.52401
       5 -> 27         0.34805
       6 -> 30         0.11988
       7 -> 31         0.12271

 Excited State 101:      Singlet-B1    24.7330 eV   50.13 nm  f=0.0616  <S**2>=0.000
       3 ->  9        -0.38079
       7 -> 28        -0.12202
       7 -> 30         0.56535

 Excited State 102:      Singlet-B2    24.8018 eV   49.99 nm  f=0.0478  <S**2>=0.000
       4 -> 22         0.68404
       5 -> 28         0.13170

 Excited State 103:      Singlet-B1    24.9952 eV   49.60 nm  f=0.0058  <S**2>=0.000
       3 ->  9         0.49031
       4 -> 25         0.14831
       6 -> 31         0.20805
       7 -> 28         0.14373
       7 -> 30         0.34654
       7 -> 32         0.17927
       8 -> 33         0.11995

 Excited State 104:      Singlet-A2    25.1298 eV   49.34 nm  f=0.0000  <S**2>=0.000
       4 -> 24         0.70662

 Excited State 105:      Singlet-A1    25.2959 eV   49.01 nm  f=0.0018  <S**2>=0.000
       5 -> 27         0.16648
       6 -> 28         0.17851
       6 -> 30        -0.35689
       7 -> 31         0.49962

 Excited State 106:      Singlet-B2    25.5276 eV   48.57 nm  f=0.0147  <S**2>=0.000
       4 -> 22        -0.12970
       5 -> 28         0.53596
       6 -> 29         0.42496

 Excited State 107:      Singlet-B1    25.6987 eV   48.25 nm  f=0.0083  <S**2>=0.000
       4 -> 25        -0.18119
       6 -> 31        -0.44054
       7 -> 32         0.51990

 Excited State 108:      Singlet-B2    25.8046 eV   48.05 nm  f=0.2696  <S**2>=0.000
       5 -> 28        -0.41469
       6 -> 29         0.52956

 Excited State 109:      Singlet-B1    25.8737 eV   47.92 nm  f=0.0638  <S**2>=0.000
       3 ->  9        -0.11095
       4 -> 25         0.65006
       6 -> 31        -0.24178

 Excited State 110:      Singlet-A1    26.3015 eV   47.14 nm  f=0.3791  <S**2>=0.000
       3 -> 10        -0.14667
       4 -> 26         0.27581
       5 -> 29        -0.20500
       6 -> 28         0.13096
       6 -> 30         0.48832
       6 -> 32        -0.12298
       7 -> 31         0.17933
       7 -> 34        -0.11848

 Excited State 111:      Singlet-A1    26.5295 eV   46.73 nm  f=0.0210  <S**2>=0.000
       3 -> 10        -0.15546
       4 -> 26         0.46497
       5 -> 29         0.47123
       6 -> 32        -0.10978

 Excited State 112:      Singlet-B1    26.5737 eV   46.66 nm  f=0.4595  <S**2>=0.000
       3 ->  9        -0.18554
       4 -> 25         0.12460
       6 -> 31         0.43066
       7 -> 30        -0.18056
       7 -> 32         0.43377
       8 -> 33        -0.15027

 Excited State 113:      Singlet-A1    26.6149 eV   46.58 nm  f=0.0072  <S**2>=0.000
       3 -> 10         0.64044
       4 -> 26         0.11675
       6 -> 32        -0.25264

 Excited State 114:      Singlet-A1    26.6960 eV   46.44 nm  f=0.0595  <S**2>=0.000
       3 -> 10         0.19478
       4 -> 26         0.19287
       6 -> 32         0.63449

 Excited State 115:      Singlet-B2    26.8651 eV   46.15 nm  f=0.0000  <S**2>=0.000
       4 -> 27         0.10881
       5 -> 30         0.68500

 Excited State 116:      Singlet-A2    26.9496 eV   46.01 nm  f=0.0000  <S**2>=0.000
       5 -> 31         0.70682

 Excited State 117:      Singlet-A1    27.3573 eV   45.32 nm  f=0.0000  <S**2>=0.000
       3 -> 12        -0.11955
       4 -> 26        -0.32722
       4 -> 28         0.15263
       5 -> 29         0.43476
       6 -> 30         0.21289
       7 -> 31         0.18150
       7 -> 34        -0.16805
       8 -> 36        -0.16403

 Excited State 118:      Singlet-B2    27.5433 eV   45.01 nm  f=0.1356  <S**2>=0.000
       4 -> 27         0.27452
       5 -> 32        -0.16318
       7 -> 33         0.61763

 Excited State 119:      Singlet-B2    27.6593 eV   44.83 nm  f=0.0080  <S**2>=0.000
       4 -> 27         0.58117
       5 -> 32         0.32748
       7 -> 33        -0.17570
       8 -> 35         0.12492

 Excited State 120:      Singlet-B2    28.0483 eV   44.20 nm  f=0.0106  <S**2>=0.000
       4 -> 27        -0.17385
       5 -> 32         0.56533
       7 -> 33         0.22494
       8 -> 35        -0.29929

 Excited State 121:      Singlet-B2    28.2523 eV   43.88 nm  f=0.0000  <S**2>=0.000
       3 -> 11         0.70247

 Excited State 122:      Singlet-A2    28.3057 eV   43.80 nm  f=0.0000  <S**2>=0.000
       6 -> 33         0.70656

 Excited State 123:      Singlet-A1    28.5095 eV   43.49 nm  f=0.0145  <S**2>=0.000
       3 -> 12         0.61906
       4 -> 28         0.27899
       7 -> 34         0.11508

 Excited State 124:      Singlet-A1    28.6767 eV   43.24 nm  f=0.0002  <S**2>=0.000
       4 -> 28        -0.25870
       7 -> 34         0.53136
       8 -> 36        -0.31702

 Excited State 125:      Singlet-A1    28.8247 eV   43.01 nm  f=0.0001  <S**2>=0.000
       3 -> 12        -0.23430
       4 -> 28         0.47142
       7 -> 34         0.33558
       8 -> 36         0.28139

 Excited State 126:      Singlet-B2    28.9239 eV   42.87 nm  f=0.0116  <S**2>=0.000
       4 -> 27        -0.15831
       4 -> 29        -0.17729
       5 -> 32         0.18301
       7 -> 33         0.12073
       8 -> 35         0.58595
       8 -> 37         0.16341

 Excited State 127:      Singlet-B1    28.9425 eV   42.84 nm  f=0.0167  <S**2>=0.000
       3 -> 13         0.13883
       6 -> 34         0.69050

 Excited State 128:      Singlet-B1    29.0782 eV   42.64 nm  f=0.0001  <S**2>=0.000
       3 -> 13         0.68843
       6 -> 34        -0.14361

 Excited State 129:      Singlet-B2    29.3886 eV   42.19 nm  f=0.0000  <S**2>=0.000
       4 -> 29         0.21418

 The electronic state is 1-A1.
 Alpha  occ. eigenvalues --  -18.81594 -10.02863  -0.97007  -0.56710  -0.44729
 Alpha  occ. eigenvalues --   -0.40143  -0.37111  -0.22858
 Alpha virt. eigenvalues --   -0.09292   0.00597   0.06410   0.06500   0.09383
 Alpha virt. eigenvalues --    0.11006   0.13517   0.13802   0.17562   0.20651
 Alpha virt. eigenvalues --    0.26788   0.27811   0.30083   0.33418   0.33671

 Mulliken charges:
               1
     1  C    0.706423
     2  O   -0.202085
     3  H   -0.252169
     4  H   -0.252169
 Sum of Mulliken charges =   0.00000

 Dipole moment (field-independent basis, Debye):
    X=              0.0000    Y=              0.0000    Z=             -2.2589  Tot=              2.2589
 Quadrupole moment (field-independent basis, Debye-Ang):
   XX=            -11.7467   YY=            -11.9260   ZZ=            -12.6477
   XY=             -0.0000   XZ=             -0.0000   YZ=              0.0000

 Normal termination of Gaussian 16 at Mon Mar 21 19:55:45 2022.
