 Gaussian 16, Revision C.01,
 Gaussian 16:  EM64L-G16RevC.01  3-Jul-2019

 --------------------------------------------------------------------
 #P TD(Nstates=10000) blyp/Gen SCF(maxcycles=100) Int(Grid=ultrafine)
 --------------------------------------------------------------------

 ---------------------
 xGDB7_00001_tier4.com
 ---------------------
 Symbolic Z-matrix:
 Charge =  0 Multiplicity = 1

                         Standard orientation:
 ---------------------------------------------------------------------
 Center     Atomic      Atomic             Coordinates (Angstroms)
 Number     Number       Type             X           Y           Z
 ---------------------------------------------------------------------
      1          7           0        1.111035   -0.177046   -0.052467
      2          6           0       -0.122009    0.419593    0.001774
      3          7           0       -1.267607   -0.121443    0.008098
      4          1           0        1.920558    0.367802    0.180104
      5          1           0        1.180700   -1.165617    0.115308
      6          1           0       -0.065701    1.508813    0.004046
      7          1           0       -1.207497   -1.139126    0.000481
 ---------------------------------------------------------------------

 SCF Done:  E(RB-LYP) =  -149.856701463     A.U. after   14 cycles

 Excitation energies and oscillator strengths:

 Excited State   1:      Singlet-A      5.6598 eV  219.06 nm  f=0.0042  <S**2>=0.000
      11 -> 13        -0.10317
      12 -> 13         0.47461
      12 -> 14         0.51289
 This state for optimization and/or second-order correction.
 Total Energy, E(TD-HF/TD-DFT) =  -149.648708004
 Copying the excited state density for this state as the 1-particle RhoCI density.

 Excited State   2:      Singlet-A      5.8513 eV  211.89 nm  f=0.0137  <S**2>=0.000
      11 -> 13         0.48779
      11 -> 14         0.43661
      12 -> 13        -0.14357
      12 -> 14         0.22151

 Excited State   3:      Singlet-A      6.0415 eV  205.22 nm  f=0.0144  <S**2>=0.000
      11 -> 13        -0.36195
      11 -> 14         0.55313
      12 -> 13         0.13055
      12 -> 14        -0.20625

 Excited State   4:      Singlet-A      6.4637 eV  191.82 nm  f=0.0063  <S**2>=0.000
      12 -> 15         0.69475

 Excited State   5:      Singlet-A      6.7088 eV  184.81 nm  f=0.0519  <S**2>=0.000
      11 -> 15         0.67257
      12 -> 13         0.12427
      12 -> 14        -0.10651
      12 -> 15        -0.10534

 Excited State   6:      Singlet-A      6.9704 eV  177.87 nm  f=0.2128  <S**2>=0.000
      11 -> 13         0.29231
      11 -> 15        -0.16005
      11 -> 16        -0.18945
      12 -> 13         0.38797
      12 -> 14        -0.30054
      12 -> 16         0.28256

 Excited State   7:      Singlet-A      7.1610 eV  173.14 nm  f=0.0515  <S**2>=0.000
      11 -> 16         0.21903
      12 -> 13        -0.14139
      12 -> 14         0.12766
      12 -> 16         0.63224

 Excited State   8:      Singlet-A      7.3871 eV  167.84 nm  f=0.0590  <S**2>=0.000
      11 -> 13         0.10525
      11 -> 16         0.64215
      12 -> 13         0.15890
      12 -> 14        -0.11683
      12 -> 16        -0.13048

 Excited State   9:      Singlet-A      8.1728 eV  151.70 nm  f=0.0058  <S**2>=0.000
      12 -> 17         0.70338

 Excited State  10:      Singlet-A      8.3608 eV  148.29 nm  f=0.0117  <S**2>=0.000
      11 -> 17         0.70491

 Excited State  11:      Singlet-A      8.7147 eV  142.27 nm  f=0.0004  <S**2>=0.000
      12 -> 18         0.69502

 Excited State  12:      Singlet-A      8.9606 eV  138.37 nm  f=0.0394  <S**2>=0.000
      10 -> 13         0.34878
      10 -> 14         0.54759
      11 -> 18        -0.25381
      12 -> 18         0.10426

 Excited State  13:      Singlet-A      8.9865 eV  137.97 nm  f=0.0090  <S**2>=0.000
      10 -> 13         0.17844
      10 -> 14         0.20045
      11 -> 18         0.64480

 Excited State  14:      Singlet-A      9.4204 eV  131.61 nm  f=0.0197  <S**2>=0.000
      11 -> 19        -0.27188
      11 -> 20         0.10881
      12 -> 19         0.61525
      12 -> 20         0.15039

 Excited State  15:      Singlet-A      9.5339 eV  130.05 nm  f=0.0040  <S**2>=0.000
      11 -> 19         0.61890
      11 -> 20         0.10965
      12 -> 19         0.17402
      12 -> 20         0.23147

 Excited State  16:      Singlet-A      9.5466 eV  129.87 nm  f=0.0057  <S**2>=0.000
      11 -> 19        -0.14271
      12 -> 19        -0.18139
      12 -> 20         0.64084

 Excited State  17:      Singlet-A      9.7186 eV  127.57 nm  f=0.0034  <S**2>=0.000
       9 -> 13         0.24245
      10 -> 15         0.65262

 Excited State  18:      Singlet-A      9.7520 eV  127.14 nm  f=0.0140  <S**2>=0.000
       9 -> 13        -0.36623
       9 -> 14        -0.22953
      10 -> 13         0.11535
      10 -> 15         0.15489
      11 -> 19        -0.10095
      11 -> 20         0.46588
      12 -> 19        -0.16485

 Excited State  19:      Singlet-A      9.7605 eV  127.03 nm  f=0.0107  <S**2>=0.000
       9 -> 13         0.41184
       9 -> 14         0.20612
      10 -> 13        -0.13199
      11 -> 20         0.49053

 Excited State  20:      Singlet-A      9.9263 eV  124.90 nm  f=0.0021  <S**2>=0.000
       9 -> 13        -0.32673
       9 -> 14         0.56883
      10 -> 13        -0.10931
      10 -> 15         0.17996
      11 -> 21        -0.10645

 Excited State  21:      Singlet-A     10.1128 eV  122.60 nm  f=0.0598  <S**2>=0.000
       9 -> 13         0.11463
       9 -> 14         0.23165
      10 -> 13         0.39852
      10 -> 14        -0.26522
      10 -> 16         0.10131
      12 -> 19        -0.11419
      12 -> 21         0.36737

 Excited State  22:      Singlet-A     10.2952 eV  120.43 nm  f=0.0271  <S**2>=0.000
       9 -> 14         0.11780
      10 -> 13         0.15319
      10 -> 14        -0.11167
      10 -> 16         0.22115
      11 -> 21         0.53057
      12 -> 21        -0.32256

 Excited State  23:      Singlet-A     10.3945 eV  119.28 nm  f=0.0128  <S**2>=0.000
      10 -> 16         0.62890
      11 -> 21        -0.28571

 Excited State  24:      Singlet-A     10.5104 eV  117.96 nm  f=0.1200  <S**2>=0.000
      10 -> 13        -0.23939
      10 -> 14         0.16232
      10 -> 16         0.18830
      11 -> 21         0.31599
      12 -> 21         0.42766
      12 -> 22         0.16407

 Excited State  25:      Singlet-A     10.6301 eV  116.63 nm  f=0.0074  <S**2>=0.000
       9 -> 15         0.14843
      12 -> 21        -0.10544
      12 -> 22         0.65946
      12 -> 23         0.12143

 Excited State  26:      Singlet-A     10.7676 eV  115.15 nm  f=0.0626  <S**2>=0.000
       9 -> 15         0.58633
      11 -> 22        -0.33912
      12 -> 22        -0.10738

 Excited State  27:      Singlet-A     10.8969 eV  113.78 nm  f=0.0916  <S**2>=0.000
       9 -> 15        -0.24821
      11 -> 22        -0.35027
      11 -> 23        -0.13483
      12 -> 23         0.53151

 Excited State  28:      Singlet-A     10.9309 eV  113.43 nm  f=0.1064  <S**2>=0.000
       9 -> 15         0.22924
      11 -> 22         0.41403
      11 -> 23         0.21411
      12 -> 22        -0.13236
      12 -> 23         0.43083

 Excited State  29:      Singlet-A     11.1476 eV  111.22 nm  f=0.0515  <S**2>=0.000
       9 -> 16        -0.18659
      11 -> 22        -0.20733
      11 -> 23         0.60160
      12 -> 24         0.20524

 Excited State  30:      Singlet-A     11.3690 eV  109.05 nm  f=0.0452  <S**2>=0.000
       9 -> 16         0.61488
      12 -> 24         0.32747

 Excited State  31:      Singlet-A     11.4336 eV  108.44 nm  f=0.0043  <S**2>=0.000
      10 -> 17         0.70343

 Excited State  32:      Singlet-A     11.5632 eV  107.22 nm  f=0.0181  <S**2>=0.000
       9 -> 16         0.11757
      11 -> 24         0.65011
      12 -> 24        -0.21599

 Excited State  33:      Singlet-A     11.7132 eV  105.85 nm  f=0.0593  <S**2>=0.000
       9 -> 16        -0.23170
      10 -> 19         0.17291
      11 -> 22         0.13185
      11 -> 23        -0.18149
      11 -> 24         0.26458
      12 -> 24         0.50995

 Excited State  34:      Singlet-A     12.0627 eV  102.78 nm  f=0.0511  <S**2>=0.000
      10 -> 18         0.67731
      12 -> 25         0.13291

 Excited State  35:      Singlet-A     12.2503 eV  101.21 nm  f=0.0391  <S**2>=0.000
      10 -> 18        -0.12786
      12 -> 25         0.67111

 Excited State  36:      Singlet-A     12.3600 eV  100.31 nm  f=0.0421  <S**2>=0.000
       8 -> 13         0.37393
       9 -> 17         0.52724
      11 -> 25         0.24549

 Excited State  37:      Singlet-A     12.4157 eV   99.86 nm  f=0.0326  <S**2>=0.000
       8 -> 13         0.47183
       9 -> 17        -0.39830
      11 -> 25         0.16392
      12 -> 26         0.26193

 Excited State  38:      Singlet-A     12.4689 eV   99.43 nm  f=0.0196  <S**2>=0.000
       8 -> 13        -0.29383
      11 -> 25         0.23249
      12 -> 26         0.54909

 Excited State  39:      Singlet-A     12.5354 eV   98.91 nm  f=0.0106  <S**2>=0.000
       8 -> 14         0.63730
      11 -> 25         0.18148
      11 -> 26         0.12862
      12 -> 26        -0.11082

 Excited State  40:      Singlet-A     12.5721 eV   98.62 nm  f=0.1520  <S**2>=0.000
       8 -> 13        -0.11930
       8 -> 14        -0.15690
       9 -> 17        -0.11813
      11 -> 25         0.47825
      11 -> 26        -0.30015
      12 -> 26        -0.30856

 Excited State  41:      Singlet-A     12.6925 eV   97.68 nm  f=0.0424  <S**2>=0.000
       8 -> 14        -0.14175
       9 -> 18        -0.18080
      10 -> 19         0.23995
      11 -> 25         0.18551
      11 -> 26         0.54946
      11 -> 27         0.15156

 Excited State  42:      Singlet-A     12.8335 eV   96.61 nm  f=0.0494  <S**2>=0.000
       8 -> 14         0.14098
       9 -> 18        -0.10005
      10 -> 19         0.36122
      10 -> 20         0.47673
      11 -> 26        -0.16024
      11 -> 27        -0.13541
      12 -> 27        -0.12506

 Excited State  43:      Singlet-A     12.8745 eV   96.30 nm  f=0.0342  <S**2>=0.000
       9 -> 18         0.58459
      10 -> 19        -0.10991
      10 -> 20         0.26838
      11 -> 26         0.12463
      12 -> 27        -0.17505

 Excited State  44:      Singlet-A     12.9578 eV   95.68 nm  f=0.0047  <S**2>=0.000
       7 -> 13        -0.10468
       7 -> 14        -0.10853
       7 -> 15         0.10066
       9 -> 18         0.31111
       9 -> 20         0.10032
      10 -> 19         0.41135
      10 -> 20        -0.31006
      12 -> 27         0.17995

 Excited State  45:      Singlet-A     13.0842 eV   94.76 nm  f=0.0449  <S**2>=0.000
       7 -> 13        -0.36461
       7 -> 14         0.19834
       9 -> 19        -0.10438
      10 -> 20         0.21072
      11 -> 27         0.18334
      12 -> 27         0.45789

 Excited State  46:      Singlet-A     13.1910 eV   93.99 nm  f=0.0369  <S**2>=0.000
       7 -> 13         0.54174
       7 -> 14        -0.13055
       9 -> 19        -0.10417
      10 -> 20         0.13285
      11 -> 27         0.12021
      12 -> 27         0.34476

 Excited State  47:      Singlet-A     13.2881 eV   93.30 nm  f=0.0265  <S**2>=0.000
       7 -> 14        -0.11706
       8 -> 15         0.56687
      10 -> 21         0.21205
      11 -> 27        -0.32298

 Excited State  48:      Singlet-A     13.4174 eV   92.41 nm  f=0.0328  <S**2>=0.000
       7 -> 13         0.11540
       7 -> 14         0.51290
       7 -> 15         0.14390
       8 -> 15         0.22795
      10 -> 19         0.12047
      10 -> 21        -0.32126

 Excited State  49:      Singlet-A     13.4579 eV   92.13 nm  f=0.1158  <S**2>=0.000
       7 -> 13         0.12377
       7 -> 14         0.25013
       8 -> 15        -0.17455
       9 -> 19         0.44804
      10 -> 21         0.38344
      11 -> 27        -0.11529

 Excited State  50:      Singlet-A     13.5062 eV   91.80 nm  f=0.0942  <S**2>=0.000
       7 -> 14        -0.23921
       8 -> 15         0.14449
       9 -> 19         0.50775
       9 -> 20        -0.12628
      10 -> 21        -0.28456
      11 -> 27         0.16414

 Excited State  51:      Singlet-A     13.6576 eV   90.78 nm  f=0.0163  <S**2>=0.000
       8 -> 15         0.18177
       8 -> 16         0.36809
      10 -> 21         0.26571
      11 -> 26        -0.10128
      11 -> 27         0.38857
      12 -> 27        -0.15609

 Excited State  52:      Singlet-A     13.8016 eV   89.83 nm  f=0.0389  <S**2>=0.000
       7 -> 15        -0.19954
       9 -> 20         0.64218
      10 -> 22        -0.11949

 Excited State  53:      Singlet-A     13.9070 eV   89.15 nm  f=0.0052  <S**2>=0.000
      10 -> 22         0.68182
      10 -> 23         0.10562

 Excited State  54:      Singlet-A     14.0501 eV   88.24 nm  f=0.0404  <S**2>=0.000
       8 -> 16        -0.17909
      10 -> 23         0.19257
      11 -> 29         0.10308
      12 -> 28         0.63495

 Excited State  55:      Singlet-A     14.1040 eV   87.91 nm  f=0.0614  <S**2>=0.000
       7 -> 15        -0.13328
       8 -> 16         0.38097
       9 -> 21         0.12162
      10 -> 23        -0.20504
      11 -> 27        -0.12243
      11 -> 28         0.17989
      12 -> 28         0.15251
      12 -> 29         0.39527

 Excited State  56:      Singlet-A     14.1428 eV   87.67 nm  f=0.0299  <S**2>=0.000
       8 -> 16         0.26969
       9 -> 21        -0.23674
      10 -> 23         0.53881
      11 -> 27        -0.10055
      11 -> 28         0.12327

 Excited State  57:      Singlet-A     14.1771 eV   87.45 nm  f=0.0207  <S**2>=0.000
       7 -> 15        -0.14014
       8 -> 16         0.18295
       9 -> 21         0.43796
      11 -> 28        -0.16237
      12 -> 28         0.11465
      12 -> 29        -0.42615

 Excited State  58:      Singlet-A     14.2082 eV   87.26 nm  f=0.0038  <S**2>=0.000
       8 -> 16        -0.16292
       9 -> 21         0.44026
      10 -> 23         0.24801
      11 -> 28         0.33111
      11 -> 29        -0.13618
      12 -> 28        -0.11513
      12 -> 29         0.17356

 Excited State  59:      Singlet-A     14.2414 eV   87.06 nm  f=0.0047  <S**2>=0.000
       9 -> 21        -0.15399
      10 -> 23        -0.21173
      11 -> 28         0.50537
      11 -> 29        -0.19357
      12 -> 28         0.14268
      12 -> 29        -0.32307

 Excited State  60:      Singlet-A     14.2594 eV   86.95 nm  f=0.0895  <S**2>=0.000
       7 -> 15         0.54008
       8 -> 16         0.11477
       9 -> 20         0.14293
       9 -> 21         0.11781
      11 -> 30         0.14362
      12 -> 30        -0.19973

 Excited State  61:      Singlet-A     14.3574 eV   86.36 nm  f=0.0081  <S**2>=0.000
       7 -> 15         0.15309
      12 -> 30         0.65972

 Excited State  62:      Singlet-A     14.4363 eV   85.88 nm  f=0.0081  <S**2>=0.000
      11 -> 28         0.14344
      11 -> 29         0.54998
      11 -> 30        -0.34236
      12 -> 31         0.10145

 Excited State  63:      Singlet-A     14.5955 eV   84.95 nm  f=0.0335  <S**2>=0.000
       7 -> 16        -0.22812
      11 -> 28         0.10001
      11 -> 29         0.20914
      11 -> 30         0.55218
      12 -> 31         0.11442
      12 -> 32         0.17783

 Excited State  64:      Singlet-A     14.6985 eV   84.35 nm  f=0.0038  <S**2>=0.000
       7 -> 16         0.59643
       8 -> 17        -0.10239
       9 -> 22         0.11394
      10 -> 24        -0.21645
      12 -> 31         0.16429

 Excited State  65:      Singlet-A     14.7565 eV   84.02 nm  f=0.0196  <S**2>=0.000
      11 -> 31         0.14103
      11 -> 32         0.12942
      12 -> 31         0.49540
      12 -> 32        -0.43966

 Excited State  66:      Singlet-A     14.7809 eV   83.88 nm  f=0.0261  <S**2>=0.000
       7 -> 16         0.18957
       9 -> 22        -0.37327
      10 -> 24         0.50704
      12 -> 32         0.11951

 Excited State  67:      Singlet-A     14.8461 eV   83.51 nm  f=0.0336  <S**2>=0.000
       8 -> 17        -0.11997
       9 -> 22        -0.21560
       9 -> 23         0.12149
      11 -> 29         0.13142
      11 -> 30         0.11088
      11 -> 31         0.40973
      11 -> 32         0.13471
      12 -> 31        -0.33195
      12 -> 32        -0.24488

 Excited State  68:      Singlet-A     14.9090 eV   83.16 nm  f=0.0324  <S**2>=0.000
       6 -> 14        -0.10805
       9 -> 22         0.34940
      10 -> 24         0.18985
      11 -> 31         0.18807
      11 -> 32         0.46712
      12 -> 32         0.19198

 Excited State  69:      Singlet-A     14.9530 eV   82.92 nm  f=0.0657  <S**2>=0.000
       6 -> 14        -0.15461
       8 -> 17         0.10398
       9 -> 23         0.17077
      11 -> 31         0.43630
      11 -> 32        -0.40133
      12 -> 31         0.13089
      12 -> 32         0.19203

 Excited State  70:      Singlet-A     14.9812 eV   82.76 nm  f=0.0377  <S**2>=0.000
       6 -> 13        -0.11232
       8 -> 17         0.33651
       9 -> 23         0.52369
      11 -> 31        -0.22519
      12 -> 32        -0.11658

 Excited State  71:      Singlet-A     15.1077 eV   82.07 nm  f=0.0487  <S**2>=0.000
       6 -> 13         0.11444
       7 -> 16         0.11349
       8 -> 17         0.11070
       8 -> 18         0.20307
       9 -> 22         0.31299
       9 -> 23        -0.17362
      10 -> 24         0.26105
      11 -> 29         0.12685
      11 -> 30         0.10167
      11 -> 32        -0.21069
      12 -> 31        -0.14864
      12 -> 32        -0.18952
      12 -> 34        -0.10628

 Excited State  72:      Singlet-A     15.1927 eV   81.61 nm  f=0.0137  <S**2>=0.000
       6 -> 13        -0.29059
       6 -> 14        -0.25539
       6 -> 15        -0.12349
       8 -> 17         0.35420
       8 -> 18        -0.10381
       9 -> 23        -0.33363
      10 -> 24        -0.12807
      11 -> 29         0.10062

 Excited State  73:      Singlet-A     15.3142 eV   80.96 nm  f=0.0684  <S**2>=0.000
       6 -> 13         0.28160
       6 -> 14         0.34317
       6 -> 15        -0.20683
       7 -> 17         0.20599
       8 -> 17         0.33075
       9 -> 22        -0.10364
      11 -> 31         0.10294
      12 -> 32         0.12349

 Excited State  74:      Singlet-A     15.3948 eV   80.54 nm  f=0.0157  <S**2>=0.000
       8 -> 18        -0.13823
       9 -> 24        -0.13538
      10 -> 25        -0.11544
      12 -> 33         0.66025

 Excited State  75:      Singlet-A     15.4750 eV   80.12 nm  f=0.0028  <S**2>=0.000
       6 -> 13         0.25359
       6 -> 14        -0.26711
       9 -> 24         0.56022
      11 -> 33        -0.11431

 Excited State  76:      Singlet-A     15.5225 eV   79.87 nm  f=0.0098  <S**2>=0.000
       9 -> 24        -0.14180
      10 -> 25         0.60022
      11 -> 33        -0.23265
      12 -> 34        -0.21975

 Excited State  77:      Singlet-A     15.5422 eV   79.77 nm  f=0.0079  <S**2>=0.000
       6 -> 14        -0.13689
       8 -> 18         0.37344
      10 -> 25         0.24313
      11 -> 33         0.18960
      12 -> 34         0.46871

 Excited State  78:      Singlet-A     15.6196 eV   79.38 nm  f=0.0633  <S**2>=0.000
       6 -> 15        -0.10104
      10 -> 25         0.13931
      11 -> 33         0.56626
      11 -> 34         0.12685
      12 -> 34        -0.29658

 Excited State  79:      Singlet-A     15.6605 eV   79.17 nm  f=0.0332  <S**2>=0.000
       6 -> 13        -0.20322
       6 -> 14         0.14228
       8 -> 18         0.39411
       9 -> 24         0.22833
      10 -> 26        -0.24972
      11 -> 34        -0.18799
      12 -> 33         0.10454
      12 -> 34        -0.22683

 Excited State  80:      Singlet-A     15.7241 eV   78.85 nm  f=0.0742  <S**2>=0.000
       6 -> 13         0.15844
       6 -> 14        -0.15537
       7 -> 17        -0.21682
       8 -> 18         0.14489
       9 -> 24        -0.12186
      10 -> 25        -0.11756
      10 -> 26        -0.23610
      11 -> 33        -0.12523
      11 -> 34         0.48351
      12 -> 34        -0.12592

 Excited State  81:      Singlet-A     15.7533 eV   78.70 nm  f=0.0802  <S**2>=0.000
       6 -> 13         0.22798
       6 -> 14        -0.23148
       7 -> 17         0.18026
       8 -> 18         0.22872
       9 -> 24        -0.21280
      10 -> 25        -0.12224
      10 -> 26         0.26007
      10 -> 27        -0.12733
      11 -> 34        -0.23629
      12 -> 34        -0.22269

 Excited State  82:      Singlet-A     15.8090 eV   78.43 nm  f=0.0935  <S**2>=0.000
       6 -> 13        -0.12772
       6 -> 14         0.13884
       7 -> 17        -0.11617
       8 -> 18         0.13858
       9 -> 24         0.11255
      10 -> 26         0.53330
      11 -> 34         0.25687

 Excited State  83:      Singlet-A     15.9916 eV   77.53 nm  f=0.0505  <S**2>=0.000
       6 -> 15         0.40334
       7 -> 17         0.42023
       7 -> 18        -0.15413
      10 -> 27         0.10687
      11 -> 34         0.25508

 Excited State  84:      Singlet-A     16.0946 eV   77.03 nm  f=0.0065  <S**2>=0.000
       8 -> 19         0.70042

 Excited State  85:      Singlet-A     16.2338 eV   76.37 nm  f=0.0322  <S**2>=0.000
       6 -> 15        -0.33367
       7 -> 17         0.20227
       8 -> 17        -0.10781
       8 -> 20         0.52797

 Excited State  86:      Singlet-A     16.3709 eV   75.73 nm  f=0.0086  <S**2>=0.000
       7 -> 18         0.24529
       8 -> 20        -0.16623
       9 -> 25        -0.21556
      10 -> 27         0.54876
      12 -> 36         0.10406

 Excited State  87:      Singlet-A     16.4081 eV   75.56 nm  f=0.0606  <S**2>=0.000
       6 -> 15         0.21489
       6 -> 16        -0.18877
       7 -> 18         0.53235
       8 -> 20         0.20850
      10 -> 27        -0.14776

 Excited State  88:      Singlet-A     16.4904 eV   75.19 nm  f=0.0574  <S**2>=0.000
       6 -> 13         0.12694
       6 -> 15         0.13095

 The electronic state is 1-A.
 Alpha  occ. eigenvalues --  -14.04835 -13.98390  -9.98900  -0.85407  -0.76377
 Alpha  occ. eigenvalues --   -0.55767  -0.48909  -0.46038  -0.36378  -0.33204
 Alpha  occ. eigenvalues --   -0.21874  -0.21200
 Alpha virt. eigenvalues --   -0.01060  -0.00382   0.02507   0.04836   0.08690
 Alpha virt. eigenvalues --    0.10744   0.13066   0.13883   0.15780   0.17839
 Alpha virt. eigenvalues --    0.18571   0.20733   0.23754   0.24577   0.26380

 Mulliken charges:
               1
     1  N    0.332685
     2  C    0.657216
     3  N    0.013132
     4  H   -0.167500
     5  H   -0.184766
     6  H   -0.530010
     7  H   -0.120756
 Sum of Mulliken charges =  -0.00000

 Dipole moment (field-independent basis, Debye):
    X=              3.3837    Y=             -0.7552    Z=              0.5421  Tot=              3.5091
 Quadrupole moment (field-independent basis, Debye-Ang):
   XX=            -21.0076   YY=            -15.2784   ZZ=            -20.7530
   XY=              1.2089   XZ=              1.1085   YZ=             -0.1543

 Normal termination of Gaussian 16 at Mon Mar 21 19:59:58 2022.
