 Gaussian 16, Revision C.01,
 Gaussian 16:  EM64L-G16RevC.01  3-Jul-2019

 --------------------------------------------------------------------
 #P TD(Nstates=10000) blyp/Gen SCF(maxcycles=100) Int(Grid=ultrafine)
 --------------------------------------------------------------------

 ---------------------
 xGDB7_00001_tier4.com
 ---------------------
 Symbolic Z-matrix:
 Charge =  0 Multiplicity = 1

                         Standard orientation:
 ---------------------------------------------------------------------
 Center     Atomic      Atomic             Coordinates (Angstroms)
 Number     Number       Type             X           Y           Z
 ---------------------------------------------------------------------
      1          9           0        0.000000    0.000000    0.688193
      2          9           0        0.000000    0.000000   -0.688193
 ---------------------------------------------------------------------

 SCF Done:  E(RB-LYP) =  -199.362169730     A.U. after   10 cycles

 Excitation energies and oscillator strengths:

 Excited state symmetry could not be determined.
 Excited State   1:      Singlet-?Sym    4.7295 eV  262.15 nm  f=0.0001  <S**2>=0.000
       8 -> 10         0.48450
       9 -> 10         0.51715
 This state for optimization and/or second-order correction.
 Total Energy, E(TD-HF/TD-DFT) =  -199.188362600
 Copying the excited state density for this state as the 1-particle RhoCI density.

 Excited state symmetry could not be determined.
 Excited State   2:      Singlet-?Sym    4.7295 eV  262.15 nm  f=0.0001  <S**2>=0.000
       8 -> 10         0.51715
       9 -> 10        -0.48450

 Excited state symmetry could not be determined.
 Excited State   3:      Singlet-?Sym    8.3540 eV  148.41 nm  f=0.0000  <S**2>=0.000
       6 -> 10         0.68706
       7 -> 10        -0.16758

 Excited state symmetry could not be determined.
 Excited State   4:      Singlet-?Sym    8.3540 eV  148.41 nm  f=0.0000  <S**2>=0.000
       6 -> 10         0.16758
       7 -> 10         0.68706

 Excited state symmetry could not be determined.
 Excited State   5:      Singlet-?Sym   11.5632 eV  107.22 nm  f=0.0000  <S**2>=0.000
       8 -> 11         0.29318
       9 -> 11         0.64318

 Excited state symmetry could not be determined.
 Excited State   6:      Singlet-?Sym   11.5632 eV  107.22 nm  f=0.0000  <S**2>=0.000
       8 -> 11         0.64318
       9 -> 11        -0.29318

 Excited state symmetry could not be determined.
 Excited State   7:      Singlet-?Sym   11.6840 eV  106.11 nm  f=0.0222  <S**2>=0.000
       8 -> 12         0.70593

 Excited state symmetry could not be determined.
 Excited State   8:      Singlet-?Sym   11.6840 eV  106.11 nm  f=0.0222  <S**2>=0.000
       9 -> 12         0.70593

 Excited state symmetry could not be determined.
 Excited State   9:      Singlet-?Sym   12.5736 eV   98.61 nm  f=0.2259  <S**2>=0.000
       5 -> 10        -0.33918
       8 -> 13         0.43861
       9 -> 14         0.43861

 Excited state symmetry could not be determined.
 Excited State  10:      Singlet-?Sym   12.7062 eV   97.58 nm  f=0.0000  <S**2>=0.000
       8 -> 14        -0.50000
       9 -> 13         0.50000

 Excited state symmetry could not be determined.
 Excited State  11:      Singlet-?Sym   12.7079 eV   97.56 nm  f=0.0000  <S**2>=0.000
       8 -> 14         0.49999
       9 -> 13         0.49999

 Excited state symmetry could not be determined.
 Excited State  12:      Singlet-?Sym   12.7079 eV   97.56 nm  f=0.0000  <S**2>=0.000
       8 -> 13         0.49999
       9 -> 14        -0.49999

 Excited state symmetry could not be determined.
 Excited State  13:      Singlet-?Sym   14.4110 eV   86.03 nm  f=0.0000  <S**2>=0.000
       8 -> 15         0.49998
       9 -> 16        -0.49998

 Excited state symmetry could not be determined.
 Excited State  14:      Singlet-?Sym   14.4110 eV   86.03 nm  f=0.0000  <S**2>=0.000
       8 -> 16         0.49998
       9 -> 15         0.49998

 Excited state symmetry could not be determined.
 Excited State  15:      Singlet-?Sym   14.4547 eV   85.77 nm  f=0.0000  <S**2>=0.000
       8 -> 16        -0.50000
       9 -> 15         0.50000

 Excited state symmetry could not be determined.
 Excited State  16:      Singlet-?Sym   14.4577 eV   85.76 nm  f=0.0000  <S**2>=0.000
       8 -> 17         0.24191
       9 -> 17         0.66426

 Excited state symmetry could not be determined.
 Excited State  17:      Singlet-?Sym   14.4577 eV   85.76 nm  f=0.0000  <S**2>=0.000
       8 -> 17         0.66426
       9 -> 17        -0.24191

 Excited state symmetry could not be determined.
 Excited State  18:      Singlet-?Sym   14.7739 eV   83.92 nm  f=0.0000  <S**2>=0.000
       6 -> 13        -0.13939
       7 -> 14        -0.13939
       8 -> 15         0.47820
       9 -> 16         0.47820

 Excited State  19:      Singlet-SGU   15.2451 eV   81.33 nm  f=0.4126  <S**2>=0.000
       5 -> 10         0.55139
       5 -> 12         0.25441
       6 -> 15        -0.12166
       7 -> 16        -0.12166
       8 -> 13         0.21996
       9 -> 14         0.21996
       5 <- 10        -0.10792

 Excited state symmetry could not be determined.
 Excited State  20:      Singlet-?Sym   15.3432 eV   80.81 nm  f=0.0900  <S**2>=0.000
       6 -> 11         0.21623
       7 -> 11         0.67202

 Excited state symmetry could not be determined.
 Excited State  21:      Singlet-?Sym   15.3432 eV   80.81 nm  f=0.0900  <S**2>=0.000
       6 -> 11         0.67202
       7 -> 11        -0.21623

 Excited state symmetry could not be determined.
 Excited State  22:      Singlet-?Sym   15.3973 eV   80.52 nm  f=0.0000  <S**2>=0.000
       6 -> 12        -0.49930
       7 -> 12         0.50050

 Excited state symmetry could not be determined.
 Excited State  23:      Singlet-?Sym   15.3973 eV   80.52 nm  f=0.0000  <S**2>=0.000
       6 -> 12         0.50050
       7 -> 12         0.49930

 Excited state symmetry could not be determined.
 Excited State  24:      Singlet-?Sym   16.4025 eV   75.59 nm  f=0.0000  <S**2>=0.000
       6 -> 13         0.49998
       7 -> 14        -0.49998

 Excited state symmetry could not be determined.
 Excited State  25:      Singlet-?Sym   16.4025 eV   75.59 nm  f=0.0000  <S**2>=0.000
       6 -> 14         0.49998
       7 -> 13         0.49998

 Excited state symmetry could not be determined.
 Excited State  26:      Singlet-?Sym   16.4038 eV   75.58 nm  f=0.0000  <S**2>=0.000
       6 -> 14        -0.50000
       7 -> 13         0.50000

 Excited state symmetry could not be determined.
 Excited State  27:      Singlet-?Sym   17.1647 eV   72.23 nm  f=0.0000  <S**2>=0.000
       5 -> 11        -0.39320
       6 -> 13         0.40051
       7 -> 14         0.40051

 Excited State  28:      Singlet-SGU   18.0058 eV   68.86 nm  f=0.0113  <S**2>=0.000
       5 -> 12         0.49534
       6 -> 15         0.35363
       7 -> 16         0.35363

 Excited state symmetry could not be determined.
 Excited State  29:      Singlet-?Sym   18.1227 eV   68.41 nm  f=0.0000  <S**2>=0.000
       6 -> 16         0.49999
       7 -> 15         0.49999

 Excited state symmetry could not be determined.
 Excited State  30:      Singlet-?Sym   18.1227 eV   68.41 nm  f=0.0000  <S**2>=0.000
       6 -> 15        -0.49999
       7 -> 16         0.49999

 Excited state symmetry could not be determined.
 Excited State  31:      Singlet-?Sym   18.1523 eV   68.30 nm  f=0.0000  <S**2>=0.000
       6 -> 16        -0.50000
       7 -> 15         0.50000

 Excited state symmetry could not be determined.
 Excited State  32:      Singlet-?Sym   18.2585 eV   67.90 nm  f=0.0499  <S**2>=0.000
       6 -> 17        -0.24642
       7 -> 17         0.65926

 Excited state symmetry could not be determined.
 Excited State  33:      Singlet-?Sym   18.2585 eV   67.90 nm  f=0.0499  <S**2>=0.000
       6 -> 17         0.65926
       7 -> 17         0.24642

 Excited State  34:      Singlet-SGG   18.2859 eV   67.80 nm  f=0.0000  <S**2>=0.000
       5 -> 11         0.58263
       6 -> 13         0.25499
       7 -> 14         0.25499
       8 -> 15         0.10145
       9 -> 16         0.10145

 Excited state symmetry could not be determined.
 Excited State  35:      Singlet-?Sym   18.8635 eV   65.73 nm  f=0.0189  <S**2>=0.000
       5 -> 13         0.63928
       5 -> 14         0.29666

 Excited state symmetry could not be determined.
 Excited State  36:      Singlet-?Sym   18.8635 eV   65.73 nm  f=0.0189  <S**2>=0.000
       5 -> 13        -0.29666
       5 -> 14         0.63928

 Excited State  37:      Singlet-SGU   19.2003 eV   64.57 nm  f=0.0000  <S**2>=0.000
       5 -> 10        -0.25001
       5 -> 12         0.42794
       6 -> 15        -0.32790
       7 -> 16        -0.32790

 Excited state symmetry could not be determined.
 Excited State  38:      Singlet-?Sym   19.8157 eV   62.57 nm  f=0.0800  <S**2>=0.000
       8 -> 18         0.68454
       9 -> 18         0.16419

 Excited state symmetry could not be determined.
 Excited State  39:      Singlet-?Sym   19.8157 eV   62.57 nm  f=0.0800  <S**2>=0.000
       8 -> 18        -0.16419
       9 -> 18         0.68454

 Excited state symmetry could not be determined.
 Excited State  40:      Singlet-?Sym   20.5793 eV   60.25 nm  f=0.0000  <S**2>=0.000
       5 -> 15         0.57276
       5 -> 16        -0.41453

 Excited state symmetry could not be determined.
 Excited State  41:      Singlet-?Sym   20.5793 eV   60.25 nm  f=0.0000  <S**2>=0.000
       5 -> 15         0.41453
       5 -> 16         0.57276

 Excited State  42:      Singlet-SGG   20.6986 eV   59.90 nm  f=0.0000  <S**2>=0.000
       5 -> 17         0.69687

 Excited state symmetry could not be determined.
 Excited State  43:      Singlet-?Sym   21.5266 eV   57.60 nm  f=0.0000  <S**2>=0.000
       8 -> 19         0.48756
       8 -> 20         0.11073
       9 -> 19        -0.11074
       9 -> 20         0.48754

 Excited state symmetry could not be determined.
 Excited State  44:      Singlet-?Sym   21.5266 eV   57.60 nm  f=0.0000  <S**2>=0.000
       8 -> 19         0.11074
       8 -> 20        -0.48754
       9 -> 19         0.48756
       9 -> 20         0.11073

 Excited state symmetry could not be determined.
 Excited State  45:      Singlet-?Sym   21.9055 eV   56.60 nm  f=0.0000  <S**2>=0.000
       8 -> 19         0.29400
       8 -> 20         0.40379
       9 -> 19         0.40377
       9 -> 20        -0.29402

 Excited state symmetry could not be determined.
 Excited State  46:      Singlet-?Sym   21.9055 eV   56.60 nm  f=0.0000  <S**2>=0.000
       8 -> 19        -0.40377
       8 -> 20         0.29402
       9 -> 19         0.29400
       9 -> 20         0.40379

 Excited state symmetry could not be determined.
 Excited State  47:      Singlet-?Sym   23.4595 eV   52.85 nm  f=0.0000  <S**2>=0.000
       6 -> 18        -0.19216
       7 -> 18         0.68035

 Excited state symmetry could not be determined.
 Excited State  48:      Singlet-?Sym   23.4595 eV   52.85 nm  f=0.0000  <S**2>=0.000
       6 -> 18         0.68035
       7 -> 18         0.19216

 Excited State  49:      Singlet-SGG   23.8570 eV   51.97 nm  f=0.0000  <S**2>=0.000
       4 -> 10         0.67755

 Excited state symmetry could not be determined.
 Excited State  50:      Singlet-?Sym   25.1990 eV   49.20 nm  f=0.0000  <S**2>=0.000
       6 -> 19         0.48062
       6 -> 20         0.13725
       7 -> 19        -0.13725
       7 -> 20         0.48062

 Excited state symmetry could not be determined.
 Excited State  51:      Singlet-?Sym   25.1990 eV   49.20 nm  f=0.0000  <S**2>=0.000
       6 -> 19         0.13725
       6 -> 20        -0.48062
       7 -> 19         0.48062
       7 -> 20         0.13725

 Excited state symmetry could not be determined.
 Excited State  52:      Singlet-?Sym   25.6484 eV   48.34 nm  f=0.0000  <S**2>=0.000
       8 -> 22        -0.49994
       9 -> 21         0.49994

 Excited state symmetry could not be determined.
 Excited State  53:      Singlet-?Sym   25.6484 eV   48.34 nm  f=0.0000  <S**2>=0.000
       8 -> 21         0.49994
       9 -> 22         0.49994

 Excited state symmetry could not be determined.
 Excited State  54:      Singlet-?Sym   25.7358 eV   48.18 nm  f=0.0000  <S**2>=0.000
       8 -> 21         0.50000
       9 -> 22        -0.50000

 Excited state symmetry could not be determined.
 Excited State  55:      Singlet-?Sym   25.9527 eV   47.77 nm  f=0.2328  <S**2>=0.000
       6 -> 19        -0.31600
       6 -> 20         0.35177
       7 -> 19         0.35177
       7 -> 20         0.31600
       8 -> 24        -0.11163
       8 -> 25         0.10028
       9 -> 24        -0.10028
       9 -> 25        -0.11163

 Excited state symmetry could not be determined.
 Excited State  56:      Singlet-?Sym   25.9527 eV   47.77 nm  f=0.2328  <S**2>=0.000
       6 -> 19         0.35177
       6 -> 20         0.31600
       7 -> 19         0.31600
       7 -> 20        -0.35177
       8 -> 24        -0.10028
       8 -> 25        -0.11163
       9 -> 24         0.11163
       9 -> 25        -0.10028

 Excited State  57:      Singlet-SGU   25.9596 eV   47.76 nm  f=0.1958  <S**2>=0.000
       5 -> 18         0.65176
       8 -> 22         0.19181
       9 -> 21         0.19181

 Excited state symmetry could not be determined.
 Excited State  58:      Singlet-?Sym   27.2802 eV   45.45 nm  f=0.9056  <S**2>=0.000
       4 -> 11        -0.26195
       5 -> 10        -0.12416
       5 -> 18        -0.23464
       8 -> 22         0.42053
       9 -> 21         0.42053

 Excited state symmetry could not be determined.
 Excited State  59:      Singlet-?Sym   27.3385 eV   45.35 nm  f=0.0118  <S**2>=0.000
       8 -> 24         0.10543
       9 -> 23         0.68414
       9 -> 25         0.10540

 Excited state symmetry could not be determined.
 Excited State  60:      Singlet-?Sym   27.3385 eV   45.35 nm  f=0.0118  <S**2>=0.000
       8 -> 23         0.68414
       8 -> 25        -0.10540
       9 -> 24         0.10543

 Excited state symmetry could not be determined.
 Excited State  61:      Singlet-?Sym   27.4173 eV   45.22 nm  f=0.0000  <S**2>=0.000
       8 -> 24        -0.49953
       9 -> 25         0.49954

 Excited state symmetry could not be determined.
 Excited State  62:      Singlet-?Sym   27.4173 eV   45.22 nm  f=0.0000  <S**2>=0.000
       8 -> 25         0.49954
       9 -> 24         0.49953

 Excited state symmetry could not be determined.
 Excited State  63:      Singlet-?Sym   27.7381 eV   44.70 nm  f=0.0000  <S**2>=0.000
       5 -> 20         0.70662

 Excited state symmetry could not be determined.
 Excited State  64:      Singlet-?Sym   27.7381 eV   44.70 nm  f=0.0000  <S**2>=0.000
       5 -> 19         0.70662

 Excited state symmetry could not be determined.
 Excited State  65:      Singlet-?Sym   28.2676 eV   43.86 nm  f=0.6702  <S**2>=0.000
       5 -> 22        -0.10901
       6 -> 19        -0.13424
       7 -> 20         0.13424
       8 -> 23        -0.11913
       8 -> 24        -0.19568
       8 -> 25        -0.41533
       9 -> 24         0.41534
       9 -> 25        -0.19568

 Excited state symmetry could not be determined.
 Excited State  66:      Singlet-?Sym   28.2676 eV   43.86 nm  f=0.6702  <S**2>=0.000
       5 -> 21        -0.10901
       6 -> 20         0.13424
       7 -> 19         0.13424
       8 -> 24         0.41534
       8 -> 25        -0.19568
       9 -> 23        -0.11913
       9 -> 24         0.19568
       9 -> 25         0.41533

 Excited State  67:      Singlet-SGG   29.1435 eV   42.54 nm  f=0.0000  <S**2>=0.000
       4 -> 12         0.67165
       6 -> 22         0.15043
       7 -> 21         0.15043

 Excited state symmetry could not be determined.
 Excited State  68:      Singlet-?Sym   29.3285 eV   42.27 nm  f=0.0000  <S**2>=0.000
       6 -> 21         0.45956
       7 -> 22         0.45956
       8 -> 27        -0.19611
       9 -> 28        -0.19611

 Excited state symmetry could not be determined.
 Excited State  69:      Singlet-?Sym   29.3285 eV   42.27 nm  f=0.0000  <S**2>=0.000
       6 -> 22        -0.45956
       7 -> 21         0.45956
       8 -> 28         0.19612
       9 -> 27        -0.19612

 Excited state symmetry could not be determined.
 Excited State  70:      Singlet-?Sym   29.4334 eV   42.12 nm  f=0.0000  <S**2>=0.000
       6 -> 21         0.50000
       7 -> 22        -0.50000

 Excited State  71:      Singlet-SGU   29.4374 eV   42.12 nm  f=0.1288  <S**2>=0.000
       3 -> 10         0.10300
       4 -> 11         0.64607
       5 -> 18        -0.10744
       8 -> 22         0.14424
       9 -> 21         0.14424

 Excited state symmetry could not be determined.
 Excited State  72:      Singlet-?Sym   29.4989 eV   42.03 nm  f=0.0000  <S**2>=0.000
       6 -> 22        -0.19635
       7 -> 21         0.19635
       8 -> 28        -0.45981
       9 -> 27         0.45981

 Excited state symmetry could not be determined.
 Excited State  73:      Singlet-?Sym   29.4989 eV   42.03 nm  f=0.0000  <S**2>=0.000
       6 -> 21         0.19634
       7 -> 22         0.19634
       8 -> 27         0.45981
       9 -> 28         0.45981

 Excited state symmetry could not be determined.
 Excited State  74:      Singlet-?Sym   29.5046 eV   42.02 nm  f=0.0000  <S**2>=0.000
       9 -> 26         0.69409

 Excited state symmetry could not be determined.
 Excited State  75:      Singlet-?Sym   29.5046 eV   42.02 nm  f=0.0000  <S**2>=0.000
       8 -> 26         0.69409

 Excited state symmetry could not be determined.
 Excited State  76:      Singlet-?Sym   29.5260 eV   41.99 nm  f=0.0000  <S**2>=0.000
       8 -> 27         0.50000
       9 -> 28        -0.50000

 Excited state symmetry could not be determined.
 Excited State  77:      Singlet-?Sym   30.1689 eV   41.10 nm  f=0.0000  <S**2>=0.000
       4 -> 13         0.69394

 Excited state symmetry could not be determined.
 Excited State  78:      Singlet-?Sym   30.1689 eV   41.10 nm  f=0.0000  <S**2>=0.000
       4 -> 14         0.69394

 Excited state symmetry could not be determined.
 Excited State  79:      Singlet-?Sym   30.2950 eV   40.93 nm  f=0.0000  <S**2>=0.000
       4 -> 12        -0.19011
       6 -> 22         0.36872
       7 -> 21         0.36872
       8 -> 28         0.29765
       9 -> 27         0.29765

 Excited state symmetry could not be determined.
 Excited State  80:      Singlet-?Sym   30.9270 eV   40.09 nm  f=0.0000  <S**2>=0.000
       4 -> 10        -0.14892
       5 -> 26        -0.13120
       6 -> 22        -0.28672
       7 -> 21        -0.28672
       8 -> 28         0.37692
       9 -> 27         0.37692

 Excited state symmetry could not be determined.
 Excited State  81:      Singlet-?Sym   31.0319 eV   39.95 nm  f=0.0000  <S**2>=0.000
       6 -> 23         0.53536
       7 -> 23        -0.45438

 Excited state symmetry could not be determined.
 Excited State  82:      Singlet-?Sym   31.0319 eV   39.95 nm  f=0.0000  <S**2>=0.000
       6 -> 23         0.45438
       7 -> 23         0.53536

 Excited state symmetry could not be determined.
 Excited State  83:      Singlet-?Sym   31.0946 eV   39.87 nm  f=0.0000  <S**2>=0.000
       6 -> 24         0.25611
       6 -> 25         0.42938
       7 -> 24         0.42938
       7 -> 25        -0.25611

 Excited state symmetry could not be determined.
 Excited State  84:      Singlet-?Sym   31.0946 eV   39.87 nm  f=0.0000  <S**2>=0.000
       6 -> 24         0.42938
       6 -> 25        -0.25611
       7 -> 24        -0.25611
       7 -> 25        -0.42938

 Excited State  85:      Singlet-SGU   31.1083 eV   39.86 nm  f=0.0672  <S**2>=0.000
       3 -> 10         0.61726
       4 -> 17        -0.19665
       5 -> 23        -0.12011
       6 -> 28         0.16151
       7 -> 27         0.16151

 Excited state symmetry could not be determined.
 Excited State  86:      Singlet-?Sym   31.5813 eV   39.26 nm  f=0.0000  <S**2>=0.000
       6 -> 24         0.39642
       6 -> 25        -0.28972
       7 -> 24         0.28972
       7 -> 25         0.39642

 Excited state symmetry could not be determined.
 Excited State  87:      Singlet-?Sym   31.5813 eV   39.26 nm  f=0.0000  <S**2>=0.000
       6 -> 24         0.28972
       6 -> 25         0.39642
       7 -> 24        -0.39642
       7 -> 25         0.28972

 Excited state symmetry could not be determined.
 Excited State  88:      Singlet-?Sym   31.8246 eV   38.96 nm  f=0.0500  <S**2>=0.000
       4 -> 15        -0.27261
       4 -> 16         0.63091
       5 -> 21        -0.15174

 Excited state symmetry could not be determined.
 Excited State  89:      Singlet-?Sym   31.8246 eV   38.96 nm  f=0.0500  <S**2>=0.000
       4 -> 15         0.63091
       4 -> 16         0.27261
       5 -> 22        -0.15174

 Excited State  90:      Singlet-SGU   31.8916 eV   38.88 nm  f=0.0646  <S**2>=0.000
       3 -> 10         0.15453
       4 -> 17         0.67692

 Excited state symmetry could not be determined.
 Excited State  91:      Singlet-?Sym   32.3283 eV   38.35 nm  f=0.2723  <S**2>=0.000
       4 -> 15         0.11217
       4 -> 16        -0.10715
       5 -> 21        -0.44559
       5 -> 22         0.46644
       6 -> 26        -0.15544
       7 -> 26         0.14849

 Excited state symmetry could not be determined.
 Excited State  92:      Singlet-?Sym   32.3283 eV   38.35 nm  f=0.2723  <S**2>=0.000
       4 -> 15         0.10715
       4 -> 16         0.11217
       5 -> 21         0.46644
       5 -> 22         0.44559
       6 -> 26        -0.14849
       7 -> 26        -0.15544

 Excited state symmetry could not be determined.
 Excited State  93:      Singlet-?Sym   33.1849 eV   37.36 nm  f=0.0000  <S**2>=0.000
       6 -> 27         0.49648
       7 -> 28         0.49648

 Excited state symmetry could not be determined.
 Excited State  94:      Singlet-?Sym   33.1849 eV   37.36 nm  f=0.0000  <S**2>=0.000
       6 -> 28        -0.49648
       7 -> 27         0.49648

 Excited state symmetry could not be determined.
 Excited State  95:      Singlet-?Sym   33.2236 eV   37.32 nm  f=0.0000  <S**2>=0.000
       6 -> 27         0.50000
       7 -> 28        -0.50000

 Excited State  96:      Singlet-SGU   33.3191 eV   37.21 nm  f=0.0050  <S**2>=0.000
       5 -> 23         0.57187
       6 -> 28         0.29201
       7 -> 27         0.29201

 Excited state symmetry could not be determined.
 Excited State  97:      Singlet-?Sym   33.3652 eV   37.16 nm  f=0.1490  <S**2>=0.000
       5 -> 21         0.14965
       5 -> 22         0.12923
       6 -> 26         0.43945
       7 -> 26         0.50887

 Excited state symmetry could not be determined.
 Excited State  98:      Singlet-?Sym   33.3652 eV   37.16 nm  f=0.1490  <S**2>=0.000
       5 -> 21        -0.12923
       5 -> 22         0.14965
       6 -> 26         0.50887
       7 -> 26        -0.43945

 Excited state symmetry could not be determined.
 Excited State  99:      Singlet-?Sym   33.6533 eV   36.84 nm  f=0.0000  <S**2>=0.000
       5 -> 24         0.70217

 Excited state symmetry could not be determined.
 Excited State 100:      Singlet-?Sym   33.6533 eV   36.84 nm  f=0.0000  <S**2>=0.000
       5 -> 25         0.70217

 Excited State 101:      Singlet-SGU   34.6798 eV   35.75 nm  f=0.0991  <S**2>=0.000
       3 -> 10         0.23231
       5 -> 23         0.38343
       6 -> 28        -0.34974
       7 -> 27        -0.34974
       8 -> 29        -0.13037
       9 -> 30        -0.13037

 Excited state symmetry could not be determined.
 Excited State 102:      Singlet-?Sym   35.7092 eV   34.72 nm  f=0.0000  <S**2>=0.000
       5 -> 27         0.65246
       5 -> 28        -0.26869

 Excited state symmetry could not be determined.
 Excited State 103:      Singlet-?Sym   35.7092 eV   34.72 nm  f=0.0000  <S**2>=0.000
       5 -> 27         0.26869
       5 -> 28         0.65246

 The electronic state is 1-SGG.
 Alpha  occ. eigenvalues --  -24.41355 -24.41331  -1.24961  -0.98369  -0.57279
 Alpha  occ. eigenvalues --   -0.48340  -0.48340  -0.34751  -0.34751
 Alpha virt. eigenvalues --   -0.19595   0.07473   0.08202   0.11943   0.11943
 Alpha virt. eigenvalues --    0.18369   0.18369   0.18557   0.37708   0.44741
 Alpha virt. eigenvalues --    0.44741   0.59826   0.59826   0.65772   0.66449

 Mulliken charges:
               1
     1  F   -0.000000
     2  F   -0.000000
 Sum of Mulliken charges =  -0.00000

 Dipole moment (field-independent basis, Debye):
    X=             -0.0000    Y=              0.0000    Z=             -0.0000  Tot=              0.0000
 Quadrupole moment (field-independent basis, Debye-Ang):
   XX=             -9.9156   YY=             -9.9156   ZZ=             -9.1299
   XY=              0.0000   XZ=              0.0000   YZ=              0.0000

 Normal termination of Gaussian 16 at Mon Mar 21 20:06:19 2022.
