 Gaussian 16, Revision C.01,
 Gaussian 16:  EM64L-G16RevC.01  3-Jul-2019

 --------------------------------------------------------------------
 #P TD(Nstates=10000) blyp/Gen SCF(maxcycles=100) Int(Grid=ultrafine)
 --------------------------------------------------------------------

 ---------------------
 xGDB7_00001_tier4.com
 ---------------------
 Symbolic Z-matrix:
 Charge =  0 Multiplicity = 1

                         Standard orientation:
 ---------------------------------------------------------------------
 Center     Atomic      Atomic             Coordinates (Angstroms)
 Number     Number       Type             X           Y           Z
 ---------------------------------------------------------------------
      1          9           0       -1.139724   -0.269725    0.000000
      2          6           0        0.000000    0.430281    0.000000
      3          6           0        1.180852   -0.148760    0.000000
      4          1           0       -0.180450    1.498331    0.000000
      5          1           0        1.283634   -1.225170    0.000000
      6          1           0        2.069222    0.465238    0.000000
 ---------------------------------------------------------------------

 SCF Done:  E(RB-LYP) =  -177.657722363     A.U. after   13 cycles

 Excitation energies and oscillator strengths:

 Excited State   1:      Singlet-A"     6.8161 eV  181.90 nm  f=0.0331  <S**2>=0.000
      12 -> 14         0.70649
 This state for optimization and/or second-order correction.
 Total Energy, E(TD-HF/TD-DFT) =  -177.407235786
 Copying the excited state density for this state as the 1-particle RhoCI density.

 Excited State   2:      Singlet-A"     7.3635 eV  168.38 nm  f=0.0072  <S**2>=0.000
      12 -> 15         0.70639

 Excited State   3:      Singlet-A'     7.5055 eV  165.19 nm  f=0.2791  <S**2>=0.000
      12 -> 13         0.68643

 Excited State   4:      Singlet-A"     8.1356 eV  152.40 nm  f=0.0002  <S**2>=0.000
      11 -> 13         0.55644
      12 -> 16         0.43315

 Excited State   5:      Singlet-A"     8.1942 eV  151.31 nm  f=0.0008  <S**2>=0.000
      11 -> 13        -0.43406
      12 -> 16         0.55370

 Excited State   6:      Singlet-A"     8.6366 eV  143.56 nm  f=0.0005  <S**2>=0.000
      12 -> 17         0.70286

 Excited State   7:      Singlet-A'     9.2775 eV  133.64 nm  f=0.0090  <S**2>=0.000
      11 -> 14         0.70130

 Excited State   8:      Singlet-A"     9.3336 eV  132.84 nm  f=0.0001  <S**2>=0.000
      10 -> 13         0.69896

 Excited State   9:      Singlet-A"     9.4211 eV  131.60 nm  f=0.0054  <S**2>=0.000
      12 -> 18         0.70055

 Excited State  10:      Singlet-A'     9.7221 eV  127.53 nm  f=0.0032  <S**2>=0.000
      11 -> 15         0.19959
      12 -> 19         0.66425

 Excited State  11:      Singlet-A'     9.8091 eV  126.40 nm  f=0.0646  <S**2>=0.000
      11 -> 15         0.67384
      12 -> 19        -0.19350

 Excited State  12:      Singlet-A"    10.1303 eV  122.39 nm  f=0.1130  <S**2>=0.000
       8 -> 13        -0.11124
      12 -> 20         0.69113

 Excited State  13:      Singlet-A'    10.4018 eV  119.20 nm  f=0.0978  <S**2>=0.000
      10 -> 14         0.69661

 Excited State  14:      Singlet-A"    10.5214 eV  117.84 nm  f=0.0004  <S**2>=0.000
      12 -> 21         0.70627

 Excited State  15:      Singlet-A'    10.6692 eV  116.21 nm  f=0.0166  <S**2>=0.000
      11 -> 16         0.64043
      12 -> 22        -0.25926

 Excited State  16:      Singlet-A'    10.9338 eV  113.39 nm  f=0.0534  <S**2>=0.000
       9 -> 13         0.35745
      11 -> 16         0.21940
      12 -> 22         0.52521

 Excited State  17:      Singlet-A'    10.9619 eV  113.10 nm  f=0.0631  <S**2>=0.000
       9 -> 13         0.14642
      10 -> 15         0.65152
      12 -> 22        -0.19960

 Excited State  18:      Singlet-A'    11.0517 eV  112.19 nm  f=0.0566  <S**2>=0.000
       9 -> 13         0.45827
      10 -> 15        -0.17237
      11 -> 16        -0.17332
      11 -> 17        -0.41996
      12 -> 22        -0.16407

 Excited State  19:      Singlet-A"    11.0871 eV  111.83 nm  f=0.0013  <S**2>=0.000
       8 -> 13         0.16651
      12 -> 23         0.68552

 Excited State  20:      Singlet-A'    11.1715 eV  110.98 nm  f=0.1666  <S**2>=0.000
       9 -> 13         0.29964
      10 -> 15        -0.13944
      11 -> 17         0.54663
      12 -> 22        -0.25084

 Excited State  21:      Singlet-A"    11.2684 eV  110.03 nm  f=0.0154  <S**2>=0.000
       8 -> 13         0.66829
      12 -> 23        -0.16787

 Excited State  22:      Singlet-A"    11.4987 eV  107.82 nm  f=0.0431  <S**2>=0.000
       9 -> 14         0.70238

 Excited State  23:      Singlet-A'    11.7128 eV  105.85 nm  f=0.0458  <S**2>=0.000
      10 -> 16         0.65890
      10 -> 17        -0.12659
      11 -> 18         0.10585
      12 -> 24        -0.13403

 Excited State  24:      Singlet-A'    11.9077 eV  104.12 nm  f=0.0012  <S**2>=0.000
      11 -> 18         0.68621

 Excited State  25:      Singlet-A"    12.0013 eV  103.31 nm  f=0.0117  <S**2>=0.000
       9 -> 15        -0.22973
      11 -> 19         0.66504

 Excited State  26:      Singlet-A"    12.0089 eV  103.24 nm  f=0.0072  <S**2>=0.000
       9 -> 15         0.66684
      11 -> 19         0.22592

 Excited State  27:      Singlet-A'    12.1869 eV  101.74 nm  f=0.0960  <S**2>=0.000
       8 -> 14        -0.34217
      10 -> 17         0.27943
      12 -> 24         0.51390

 Excited State  28:      Singlet-A'    12.2828 eV  100.94 nm  f=0.0604  <S**2>=0.000
       8 -> 14         0.57577
      10 -> 16         0.15012
      10 -> 17         0.29748
      12 -> 24         0.15966
      12 -> 27         0.10493

 Excited State  29:      Singlet-A"    12.3821 eV  100.13 nm  f=0.0065  <S**2>=0.000
       7 -> 13         0.68792
      12 -> 25        -0.10072

 Excited State  30:      Singlet-A'    12.3934 eV  100.04 nm  f=0.0016  <S**2>=0.000
      10 -> 17         0.20520
      11 -> 20         0.65874

 Excited State  31:      Singlet-A'    12.5515 eV   98.78 nm  f=0.0107  <S**2>=0.000
       8 -> 15         0.40083
      10 -> 17         0.38735
      10 -> 18         0.12611
      11 -> 20        -0.22205
      12 -> 24        -0.28728
      12 -> 27        -0.10198

 Excited State  32:      Singlet-A"    12.6325 eV   98.15 nm  f=0.0179  <S**2>=0.000
      12 -> 25         0.68434

 Excited State  33:      Singlet-A"    12.9259 eV   95.92 nm  f=0.0000  <S**2>=0.000
       9 -> 16         0.23105
      12 -> 26         0.66025

 Excited State  34:      Singlet-A'    12.9286 eV   95.90 nm  f=0.1869  <S**2>=0.000
       7 -> 14        -0.10332
       8 -> 15         0.47210
      10 -> 17        -0.20621
      11 -> 21        -0.25910
      12 -> 27         0.33148

 Excited State  35:      Singlet-A'    12.9543 eV   95.71 nm  f=0.0378  <S**2>=0.000
       8 -> 15        -0.22929
      10 -> 18         0.43343
      10 -> 20        -0.10819
      11 -> 21        -0.42927
      12 -> 24        -0.10488
      12 -> 27         0.15677

 Excited State  36:      Singlet-A"    12.9574 eV   95.69 nm  f=0.0312  <S**2>=0.000
       9 -> 16         0.63338
      11 -> 22        -0.10393
      12 -> 26        -0.22265

 Excited State  37:      Singlet-A'    13.0003 eV   95.37 nm  f=0.0024  <S**2>=0.000
      10 -> 18         0.26713
      11 -> 21         0.46969
      11 -> 23        -0.13846
      12 -> 27         0.40617

 Excited State  38:      Singlet-A"    13.0885 eV   94.73 nm  f=0.0090  <S**2>=0.000
      10 -> 19         0.70313

 Excited State  39:      Singlet-A"    13.1883 eV   94.01 nm  f=0.0058  <S**2>=0.000
      11 -> 22         0.69604

 Excited State  40:      Singlet-A'    13.3085 eV   93.16 nm  f=0.0456  <S**2>=0.000
       7 -> 14        -0.12479
       8 -> 14         0.11747
       8 -> 15         0.16717
      10 -> 17        -0.17841
      10 -> 18         0.40351
      12 -> 24         0.19090
      12 -> 27        -0.38434

 Excited State  41:      Singlet-A"    13.3146 eV   93.12 nm  f=0.0087  <S**2>=0.000
       9 -> 17         0.70061

 Excited State  42:      Singlet-A'    13.4550 eV   92.15 nm  f=0.0096  <S**2>=0.000
       7 -> 14        -0.37073
       8 -> 16         0.43367
      10 -> 20         0.26938
      11 -> 23         0.30497

 Excited State  43:      Singlet-A'    13.5705 eV   91.36 nm  f=0.0425  <S**2>=0.000
       7 -> 14         0.47878
       7 -> 15         0.14143
       8 -> 16         0.15536
      10 -> 18         0.12050
      10 -> 20         0.42722

 Excited State  44:      Singlet-A'    13.6270 eV   90.98 nm  f=0.0177  <S**2>=0.000
       7 -> 14         0.17739
       7 -> 15         0.20501
       9 -> 19         0.14112
      10 -> 20        -0.36866
      11 -> 23         0.47970

 Excited State  45:      Singlet-A'    13.6805 eV   90.63 nm  f=0.0405  <S**2>=0.000
       7 -> 14         0.11299
       8 -> 15         0.11289
       8 -> 16         0.47176
       8 -> 17        -0.17631
      10 -> 20        -0.22408
      10 -> 21         0.16124
      11 -> 23        -0.32592

 Excited State  46:      Singlet-A'    14.0679 eV   88.13 nm  f=0.0093  <S**2>=0.000
       7 -> 14        -0.13448
       7 -> 15         0.58772
       8 -> 17        -0.18000
       9 -> 19        -0.22524
      10 -> 21        -0.16081

 Excited State  47:      Singlet-A"    14.0934 eV   87.97 nm  f=0.0001  <S**2>=0.000
       9 -> 18         0.70512

 Excited State  48:      Singlet-A'    14.0961 eV   87.96 nm  f=0.0632  <S**2>=0.000
       7 -> 15         0.13973
       8 -> 17         0.57626
       9 -> 19        -0.22614
      10 -> 21         0.22753
      10 -> 23        -0.11285

 Excited State  49:      Singlet-A"    14.2715 eV   86.88 nm  f=0.0040  <S**2>=0.000
       6 -> 13        -0.29902
      10 -> 22         0.55602
      12 -> 28        -0.30186

 Excited State  50:      Singlet-A"    14.3228 eV   86.56 nm  f=0.0161  <S**2>=0.000
      10 -> 22         0.36076
      12 -> 28         0.59848

 Excited State  51:      Singlet-A"    14.3837 eV   86.20 nm  f=0.0009  <S**2>=0.000
       6 -> 13        -0.11030
      11 -> 24         0.68537
      12 -> 28         0.10458

 Excited State  52:      Singlet-A'    14.4347 eV   85.89 nm  f=0.1602  <S**2>=0.000
       7 -> 15         0.16316
       7 -> 17        -0.12791
       8 -> 16        -0.10635
       8 -> 17        -0.11417
       9 -> 19         0.33805
      10 -> 20         0.13502
      10 -> 21         0.48138

 Excited State  53:      Singlet-A'    14.5563 eV   85.18 nm  f=0.0038  <S**2>=0.000
       7 -> 15         0.10445
       7 -> 16         0.16619
       8 -> 17         0.17337
       8 -> 18        -0.28435
       9 -> 19         0.43547
      10 -> 21        -0.26829
      10 -> 23        -0.10922
      11 -> 25         0.15974

 Excited State  54:      Singlet-A"    14.5726 eV   85.08 nm  f=0.0012  <S**2>=0.000
       6 -> 13        -0.29420
       9 -> 20         0.60094
      10 -> 22        -0.12588
      12 -> 28         0.13703

 Excited State  55:      Singlet-A'    14.7094 eV   84.29 nm  f=0.0073  <S**2>=0.000
       7 -> 16         0.40332
       8 -> 18         0.10376
      10 -> 23         0.54769

 Excited State  56:      Singlet-A"    14.8805 eV   83.32 nm  f=0.0577  <S**2>=0.000
       6 -> 13         0.39927
       8 -> 19        -0.32711
       9 -> 20         0.30829
      10 -> 22         0.13244
      11 -> 24         0.10097
      12 -> 28        -0.11649
      12 -> 30         0.23725

 Excited State  57:      Singlet-A'    14.9089 eV   83.16 nm  f=0.1176  <S**2>=0.000
       7 -> 16         0.21514
       7 -> 17        -0.13512
       8 -> 18         0.50934
      10 -> 23        -0.22609
      11 -> 25         0.28504
      11 -> 26         0.10587

 Excited State  58:      Singlet-A"    14.9562 eV   82.90 nm  f=0.0300  <S**2>=0.000
       8 -> 19        -0.14861
      12 -> 29         0.68332

 Excited State  59:      Singlet-A'    14.9829 eV   82.75 nm  f=0.1918  <S**2>=0.000
       7 -> 16         0.45305
       8 -> 17        -0.10243
       8 -> 18        -0.20710
       9 -> 19        -0.11237
      10 -> 23        -0.26882
      11 -> 25        -0.26507
      12 -> 31         0.12065

 Excited State  60:      Singlet-A"    14.9844 eV   82.74 nm  f=0.0210  <S**2>=0.000
       6 -> 13         0.15246
       8 -> 19         0.58772
       9 -> 20         0.10370
      12 -> 29         0.11472
      12 -> 30         0.30000

 Excited State  61:      Singlet-A'    15.1462 eV   81.86 nm  f=0.0585  <S**2>=0.000
       6 -> 14        -0.21612
       7 -> 17        -0.10679
       8 -> 18        -0.25579
       8 -> 20        -0.22183
       9 -> 19        -0.12967
       9 -> 22        -0.11140
      10 -> 21         0.10802
      11 -> 25         0.50392

 Excited State  62:      Singlet-A"    15.1509 eV   81.83 nm  f=0.0653  <S**2>=0.000
       6 -> 13        -0.18256
       8 -> 19        -0.12943
       9 -> 20        -0.12347
       9 -> 21        -0.28316
      10 -> 24        -0.11615
      11 -> 27         0.14537
      12 -> 30         0.54116

 Excited State  63:      Singlet-A"    15.2189 eV   81.47 nm  f=0.0158  <S**2>=0.000
       6 -> 13        -0.10027
       9 -> 21         0.63772
      11 -> 27         0.15223
      12 -> 30         0.18471

 Excited State  64:      Singlet-A'    15.2644 eV   81.22 nm  f=0.0103  <S**2>=0.000
       6 -> 14         0.54049
       7 -> 17        -0.29802
      12 -> 31        -0.27894

 Excited State  65:      Singlet-A"    15.3282 eV   80.89 nm  f=0.0470  <S**2>=0.000
       6 -> 13         0.10922
      11 -> 27         0.66418

 Excited State  66:      Singlet-A'    15.3413 eV   80.82 nm  f=0.0163  <S**2>=0.000
       7 -> 17        -0.18089
       8 -> 20        -0.13288
       9 -> 22         0.24408
      11 -> 26        -0.35990
      12 -> 31         0.48384

 Excited State  67:      Singlet-A'    15.3845 eV   80.59 nm  f=0.0892  <S**2>=0.000
       6 -> 14         0.33005
       7 -> 17         0.29581
       8 -> 20         0.28991
       9 -> 22        -0.21549
      10 -> 21         0.13095
      11 -> 25         0.18287
      12 -> 31         0.27069

 Excited State  68:      Singlet-A'    15.4043 eV   80.49 nm  f=0.0631  <S**2>=0.000
       7 -> 16        -0.11958
       7 -> 17        -0.11684
       8 -> 20        -0.29741
       8 -> 21         0.10278
       9 -> 22        -0.10457
      11 -> 26         0.50890
      12 -> 31         0.24008

 Excited State  69:      Singlet-A"    15.4977 eV   80.00 nm  f=0.0353  <S**2>=0.000
       6 -> 13        -0.10945
      10 -> 24         0.67418

 Excited State  70:      Singlet-A'    15.5453 eV   79.76 nm  f=0.0706  <S**2>=0.000
       6 -> 15         0.24944
       7 -> 17        -0.25552
       8 -> 20         0.40546
       9 -> 22         0.28791
      11 -> 26         0.25317

 Excited State  71:      Singlet-A"    15.6154 eV   79.40 nm  f=0.0103  <S**2>=0.000
      12 -> 32         0.69821

 Excited State  72:      Singlet-A'    15.6730 eV   79.11 nm  f=0.0069  <S**2>=0.000
       6 -> 15        -0.20196
       7 -> 17         0.27769
       7 -> 18         0.10127
       8 -> 20        -0.13342
       9 -> 22         0.49914
      10 -> 25        -0.10331
      11 -> 26         0.13299
      12 -> 31        -0.11046

 Excited State  73:      Singlet-A"    15.7588 eV   78.68 nm  f=0.0178  <S**2>=0.000
       9 -> 23         0.69380

 Excited State  74:      Singlet-A'    15.9787 eV   77.59 nm  f=0.0175  <S**2>=0.000
       6 -> 15         0.36296
       7 -> 17         0.12682
       7 -> 18        -0.28733
       8 -> 21         0.42128
      10 -> 25        -0.19681

 Excited State  75:      Singlet-A'    15.9862 eV   77.56 nm  f=0.0023  <S**2>=0.000
       6 -> 15         0.42217
       7 -> 17         0.12169
       7 -> 18         0.43974
       8 -> 20        -0.12871
       8 -> 21        -0.20902
       8 -> 23        -0.11253

 Excited State  76:      Singlet-A'    16.1262 eV   76.88 nm  f=0.0131  <S**2>=0.000
       7 -> 18        -0.14244
      10 -> 25         0.64683
      10 -> 26         0.11622

 Excited State  77:      Singlet-A"    16.1454 eV   76.79 nm  f=0.0054  <S**2>=0.000
       7 -> 19        -0.24330
       8 -> 22         0.65308
      12 -> 33        -0.10524

 Excited State  78:      Singlet-A"    16.1810 eV   76.62 nm  f=0.0318  <S**2>=0.000
       7 -> 19         0.65286
       8 -> 22         0.21509
      12 -> 33        -0.14710

 Excited State  79:      Singlet-A'    16.2143 eV   76.47 nm  f=0.0794  <S**2>=0.000
       7 -> 18         0.41658
       7 -> 20        -0.12158
       8 -> 20         0.11255
       8 -> 21         0.45523
      12 -> 34         0.10735

 Excited State  80:      Singlet-A"    16.3959 eV   75.62 nm  f=0.0001  <S**2>=0.000
      10 -> 27         0.47316
      12 -> 33         0.51182

 Excited State  81:      Singlet-A'    16.5109 eV   75.09 nm  f=0.0105  <S**2>=0.000
       6 -> 15        -0.10684
       6 -> 16        -0.11337
       9 -> 24         0.14240
      10 -> 26         0.62305
      11 -> 28         0.10841

 Excited State  82:      Singlet-A"    16.5213 eV   75.05 nm  f=0.1884  <S**2>=0.000
       6 -> 13        -0.10181
       7 -> 22         0.10853
      10 -> 27         0.50611
      12 -> 33        -0.42063

 Excited State  83:      Singlet-A'    16.5551 eV   74.89 nm  f=0.0199  <S**2>=0.000
       6 -> 16        -0.14798
       7 -> 20         0.11684
       8 -> 23         0.63833
      11 -> 28         0.14277

 Excited State  84:      Singlet-A'    16.6050 eV   74.67 nm  f=0.0247  <S**2>=0.000
       7 -> 20         0.61227
       9 -> 24        -0.27834
      11 -> 28        -0.11233

 Excited State  85:      Singlet-A'    16.6805 eV   74.33 nm  f=0.0079  <S**2>=0.000
       6 -> 16        -0.40076
       6 -> 17         0.11716
       7 -> 20         0.17295
       8 -> 23        -0.14114
       9 -> 24         0.46924
      10 -> 26        -0.17097

 Excited State  86:      Singlet-A'    16.7934 eV   73.83 nm  f=0.0778  <S**2>=0.000
       6 -> 16        -0.27985
       6 -> 17         0.17542
       7 -> 20        -0.11041
       7 -> 21         0.14121
       8 -> 23        -0.11632
       9 -> 24        -0.34216
      11 -> 28         0.46031

 Excited State  87:      Singlet-A'    16.9786 eV   73.02 nm  f=0.0196  <S**2>=0.000
       6 -> 16         0.37639
       7 -> 20         0.14843
       7 -> 21         0.11911
       9 -> 24         0.22088
      11 -> 28         0.40363
      11 -> 29        -0.14532
      11 -> 30        -0.11471
      12 -> 34         0.13511

 Excited State  88:      Singlet-A'    17.1600 eV   72.25 nm  f=0.0334  <S**2>=0.000
       6 -> 16         0.17533
       6 -> 17         0.61286
       7 -> 21        -0.20742
      12 -> 34        -0.16663

 Excited State  89:      Singlet-A'    17.2316 eV   71.95 nm  f=0.0781  <S**2>=0.000
       7 -> 21        -0.42543
      11 -> 30         0.13588
      12 -> 34         0.51143

 Excited State  90:      Singlet-A"    17.2457 eV   71.89 nm  f=0.0037  <S**2>=0.000
       7 -> 22         0.16491
       9 -> 25         0.66026
       9 -> 26         0.11931

 Excited State  91:      Singlet-A"    17.3394 eV   71.50 nm  f=0.0173  <S**2>=0.000
       8 -> 24         0.69861

 Excited State  92:      Singlet-A"    17.3639 eV   71.40 nm  f=0.0061  <S**2>=0.000
       7 -> 22         0.43778
      12 -> 35         0.54971

 Excited State  93:      Singlet-A'    17.3714 eV   71.37 nm  f=0.0132  <S**2>=0.000
       7 -> 23        -0.10321
      11 -> 29         0.66040
      11 -> 30        -0.12838

 Excited State  94:      Singlet-A"    17.4581 eV   71.02 nm  f=0.0953  <S**2>=0.000
       7 -> 22         0.44059
       9 -> 25        -0.13791
      12 -> 35        -0.40092
      12 -> 36        -0.32028

 Excited State  95:      Singlet-A'    17.4849 eV   70.91 nm  f=0.0468  <S**2>=0.000
       6 -> 17        -0.10441
       7 -> 21        -0.14869
       7 -> 23        -0.17444
       9 -> 27        -0.17374
      11 -> 28         0.13692
      11 -> 30         0.50499
      12 -> 34        -0.27487

 Excited State  96:      Singlet-A'    17.5166 eV   70.78 nm  f=0.0207  <S**2>=0.000
       6 -> 17         0.12596
       7 -> 21         0.27218
       7 -> 23        -0.14119
       8 -> 26        -0.10056
       9 -> 27         0.41535
      11 -> 30         0.36968
      12 -> 34         0.16873

 Excited State  97:      Singlet-A"    17.6171 eV   70.38 nm  f=0.0442  <S**2>=0.000
       7 -> 22        -0.15609
       9 -> 26         0.53824
      12 -> 36        -0.39538

 Excited State  98:      Singlet-A'    17.6723 eV   70.16 nm  f=0.0049  <S**2>=0.000
       6 -> 18         0.11837
       7 -> 21        -0.12929
       7 -> 23         0.46064
       8 -> 25        -0.10577
       9 -> 27         0.38717
      10 -> 28         0.19361
      12 -> 34        -0.10421

 Excited State  99:      Singlet-A"    17.6852 eV   70.11 nm  f=0.0231  <S**2>=0.000
       7 -> 22        -0.10564
       9 -> 25         0.10370
       9 -> 26        -0.34833
      11 -> 31         0.47468
      12 -> 36        -0.34042

 Excited State 100:      Singlet-A"    17.8011 eV   69.65 nm  f=0.0211  <S**2>=0.000
       7 -> 22         0.12230
       9 -> 26         0.25545
      11 -> 31         0.49011
      12 -> 36         0.27461
      12 -> 37         0.27611

 Excited State 101:      Singlet-A'    17.8082 eV   69.62 nm  f=0.0090  <S**2>=0.000
       7 -> 21         0.23804
       7 -> 23         0.35711
       8 -> 26        -0.20201
       9 -> 27        -0.34571
      10 -> 28         0.20421
      11 -> 30         0.18278
      12 -> 34         0.11134

 Excited State 102:      Singlet-A'    17.8667 eV   69.39 nm  f=0.0051  <S**2>=0.000
       6 -> 18        -0.40974
       7 -> 23        -0.17580
       8 -> 25        -0.14256
      10 -> 28         0.50336
      10 -> 29        -0.10032

 Excited State 103:      Singlet-A"    17.9494 eV   69.07 nm  f=0.0418  <S**2>=0.000
       5 -> 13         0.14451
       6 -> 19         0.12789
       7 -> 22        -0.11288
      11 -> 31        -0.16060
      12 -> 36        -0.17005
      12 -> 37         0.60543

 Excited State 104:      Singlet-A'    17.9566 eV   69.05 nm  f=0.0288  <S**2>=0.000
       6 -> 18         0.52094
       7 -> 23        -0.19833
      10 -> 28         0.31788
      12 -> 38        -0.15599

 The electronic state is 1-A'.
 Alpha  occ. eigenvalues --  -24.32019 -10.01006  -9.92828  -1.11004  -0.69112
 Alpha  occ. eigenvalues --   -0.54483  -0.47796  -0.43329  -0.40801  -0.36503
 Alpha  occ. eigenvalues --   -0.32482  -0.23651
 Alpha virt. eigenvalues --   -0.02852   0.01270   0.03296   0.05986   0.08003
 Alpha virt. eigenvalues --    0.10994   0.11635   0.12985   0.14965   0.15939
 Alpha virt. eigenvalues --    0.17074   0.20471   0.22425   0.23795   0.23911

 Mulliken charges:
               1
     1  F   -0.366965
     2  C    0.767438
     3  C    0.380497
     4  H   -0.308104
     5  H   -0.303368
     6  H   -0.169498
 Sum of Mulliken charges =  -0.00000

 Dipole moment (field-independent basis, Debye):
    X=              1.0940    Y=              0.7273    Z=              0.0000  Tot=              1.3137
 Quadrupole moment (field-independent basis, Debye-Ang):
   XX=            -18.0795   YY=            -16.0961   ZZ=            -19.0619
   XY=             -0.7930   XZ=              0.0000   YZ=              0.0000

 Normal termination of Gaussian 16 at Mon Mar 21 20:04:13 2022.
