 Gaussian 16, Revision C.01,
 Gaussian 16:  EM64L-G16RevC.01  3-Jul-2019

 --------------------------------------------------------------------
 #P TD(Nstates=10000) blyp/Gen SCF(maxcycles=100) Int(Grid=ultrafine)
 --------------------------------------------------------------------

 ---------------------
 xGDB7_00001_tier4.com
 ---------------------
 Symbolic Z-matrix:
 Charge =  0 Multiplicity = 1

                         Standard orientation:
 ---------------------------------------------------------------------
 Center     Atomic      Atomic             Coordinates (Angstroms)
 Number     Number       Type             X           Y           Z
 ---------------------------------------------------------------------
      1          6           0        0.926251   -0.719055    0.000000
      2          6           0        0.000000    0.459276    0.000000
      3          8           0       -1.196998    0.387136    0.000000
      4          1           0        1.575965   -0.668678    0.877698
      5          1           0        1.575965   -0.668678   -0.877698
      6          1           0        0.366733   -1.652236    0.000000
      7          1           0        0.499813    1.451182    0.000000
 ---------------------------------------------------------------------

 SCF Done:  E(RB-LYP) =  -153.674818193     A.U. after   14 cycles

 Excitation energies and oscillator strengths:

 Excited State   1:      Singlet-A"     4.2281 eV  293.24 nm  f=0.0000  <S**2>=0.000
      12 -> 13         0.70722
 This state for optimization and/or second-order correction.
 Total Energy, E(TD-HF/TD-DFT) =  -153.519439383
 Copying the excited state density for this state as the 1-particle RhoCI density.

 Excited State   2:      Singlet-A'     6.0999 eV  203.26 nm  f=0.0235  <S**2>=0.000
      12 -> 14         0.70323

 Excited State   3:      Singlet-A'     6.7956 eV  182.45 nm  f=0.0683  <S**2>=0.000
      12 -> 15         0.70468

 Excited State   4:      Singlet-A"     7.6936 eV  161.15 nm  f=0.0156  <S**2>=0.000
      12 -> 16         0.70143

 Excited State   5:      Singlet-A'     7.9201 eV  156.54 nm  f=0.0627  <S**2>=0.000
      11 -> 13        -0.11425
      12 -> 17         0.68745

 Excited State   6:      Singlet-A"     7.9216 eV  156.51 nm  f=0.0023  <S**2>=0.000
       9 -> 13         0.10015
      10 -> 13         0.69414

 Excited State   7:      Singlet-A'     8.1290 eV  152.52 nm  f=0.0240  <S**2>=0.000
      11 -> 13         0.14338
      12 -> 18         0.68637

 Excited State   8:      Singlet-A'     8.5607 eV  144.83 nm  f=0.1244  <S**2>=0.000
       8 -> 13        -0.29607
      11 -> 13         0.54091
      12 -> 17         0.11515
      12 -> 18        -0.11961
      12 -> 19         0.24654

 Excited State   9:      Singlet-A"     8.6058 eV  144.07 nm  f=0.0001  <S**2>=0.000
      12 -> 20         0.70470

 Excited State  10:      Singlet-A'     8.6512 eV  143.31 nm  f=0.1383  <S**2>=0.000
      11 -> 13        -0.22006
      12 -> 19         0.66039

 Excited State  11:      Singlet-A"     9.0571 eV  136.89 nm  f=0.0001  <S**2>=0.000
       9 -> 13         0.69171

 Excited State  12:      Singlet-A'     9.0989 eV  136.26 nm  f=0.0120  <S**2>=0.000
      12 -> 21         0.70115

 Excited State  13:      Singlet-A"     9.2080 eV  134.65 nm  f=0.0057  <S**2>=0.000
      11 -> 14         0.70595

 Excited State  14:      Singlet-A"     9.7158 eV  127.61 nm  f=0.0020  <S**2>=0.000
      12 -> 22         0.70386

 Excited State  15:      Singlet-A'     9.8583 eV  125.77 nm  f=0.0308  <S**2>=0.000
       8 -> 13         0.12477
      10 -> 14         0.69225

 Excited State  16:      Singlet-A"     9.9116 eV  125.09 nm  f=0.0143  <S**2>=0.000
       7 -> 13        -0.12203
      11 -> 15         0.69515

 Excited State  17:      Singlet-A"    10.0834 eV  122.96 nm  f=0.0022  <S**2>=0.000
       7 -> 13         0.68274
      11 -> 15         0.12335

 Excited State  18:      Singlet-A'    10.2358 eV  121.13 nm  f=0.0489  <S**2>=0.000
       8 -> 13        -0.45452
      10 -> 14         0.11759
      11 -> 13        -0.15995
      12 -> 23         0.47041
      12 -> 24        -0.10083

 Excited State  19:      Singlet-A'    10.4981 eV  118.10 nm  f=0.0066  <S**2>=0.000
       8 -> 13         0.18999
      12 -> 23         0.35097
      12 -> 24         0.56585

 Excited State  20:      Singlet-A'    10.6128 eV  116.83 nm  f=0.0453  <S**2>=0.000
       8 -> 13        -0.16219
      10 -> 15         0.65950
      12 -> 23        -0.10362

 Excited State  21:      Singlet-A'    10.6590 eV  116.32 nm  f=0.0492  <S**2>=0.000
       8 -> 13         0.21034
       9 -> 14         0.49317
      10 -> 15         0.16359
      11 -> 13         0.11441
      12 -> 23         0.26739
      12 -> 24        -0.27817

 Excited State  22:      Singlet-A'    10.8104 eV  114.69 nm  f=0.0886  <S**2>=0.000
       8 -> 13        -0.17348
       9 -> 14         0.45001
      10 -> 15        -0.14457
      11 -> 13        -0.11820
      11 -> 16        -0.31331
      12 -> 23        -0.19424
      12 -> 24         0.18192
      12 -> 25        -0.21414

 Excited State  23:      Singlet-A'    10.9408 eV  113.32 nm  f=0.0460  <S**2>=0.000
      11 -> 16         0.49958
      12 -> 25        -0.47357

 Excited State  24:      Singlet-A"    11.0429 eV  112.27 nm  f=0.0101  <S**2>=0.000
       8 -> 14        -0.16127
      11 -> 17         0.67668
      11 -> 18         0.11297

 Excited State  25:      Singlet-A'    11.0778 eV  111.92 nm  f=0.0122  <S**2>=0.000
       8 -> 13        -0.12071
       9 -> 14         0.21161
      11 -> 13        -0.12732
      11 -> 16         0.36270
      12 -> 24         0.19513
      12 -> 25         0.44827

 Excited State  26:      Singlet-A"    11.2307 eV  110.40 nm  f=0.1325  <S**2>=0.000
       8 -> 14         0.67592
      11 -> 17         0.16737

 Excited State  27:      Singlet-A"    11.2950 eV  109.77 nm  f=0.0013  <S**2>=0.000
      10 -> 16        -0.14563
      11 -> 18         0.68137

 Excited State  28:      Singlet-A'    11.4656 eV  108.14 nm  f=0.0276  <S**2>=0.000
       9 -> 15         0.69331

 Excited State  29:      Singlet-A"    11.5114 eV  107.71 nm  f=0.0106  <S**2>=0.000
      10 -> 16         0.68040
      11 -> 18         0.13081

 Excited State  30:      Singlet-A'    11.7008 eV  105.96 nm  f=0.0232  <S**2>=0.000
       7 -> 14        -0.14472
      10 -> 17         0.67758

 Excited State  31:      Singlet-A"    11.8155 eV  104.93 nm  f=0.0163  <S**2>=0.000
      11 -> 19         0.67200
      12 -> 26        -0.17409

 Excited State  32:      Singlet-A"    11.8346 eV  104.76 nm  f=0.0039  <S**2>=0.000
       8 -> 15        -0.18776
      11 -> 19         0.15540
      12 -> 26         0.66136

 Excited State  33:      Singlet-A"    11.8776 eV  104.38 nm  f=0.0044  <S**2>=0.000
       8 -> 15         0.67575
      12 -> 26         0.16492

 Excited State  34:      Singlet-A'    11.8951 eV  104.23 nm  f=0.0168  <S**2>=0.000
       7 -> 14         0.62796
      11 -> 20        -0.25837

 Excited State  35:      Singlet-A'    11.9697 eV  103.58 nm  f=0.0162  <S**2>=0.000
       7 -> 14         0.22164
       8 -> 16         0.10463
      10 -> 18        -0.16539
      11 -> 20         0.60406

 Excited State  36:      Singlet-A'    12.1526 eV  102.02 nm  f=0.0988  <S**2>=0.000
       9 -> 17         0.12689
      10 -> 18         0.63671
      10 -> 19        -0.11777

 Excited State  37:      Singlet-A"    12.2699 eV  101.05 nm  f=0.0003  <S**2>=0.000
      11 -> 21         0.69655

 Excited State  38:      Singlet-A"    12.3674 eV  100.25 nm  f=0.0003  <S**2>=0.000
       9 -> 16         0.62543
      12 -> 27        -0.31956

 Excited State  39:      Singlet-A"    12.3830 eV  100.12 nm  f=0.0019  <S**2>=0.000
       9 -> 16         0.31624
      10 -> 20        -0.16810
      12 -> 27         0.60643

 Excited State  40:      Singlet-A'    12.4525 eV   99.57 nm  f=0.0015  <S**2>=0.000
       7 -> 15        -0.18639
       8 -> 16         0.11946
       9 -> 17         0.10651
      10 -> 19         0.65031

 Excited State  41:      Singlet-A"    12.5145 eV   99.07 nm  f=0.0407  <S**2>=0.000
      10 -> 20         0.66239
      12 -> 27         0.13022

 Excited State  42:      Singlet-A'    12.5772 eV   98.58 nm  f=0.0901  <S**2>=0.000
       7 -> 15         0.58670
       9 -> 17         0.35238
      10 -> 19         0.10660

 Excited State  43:      Singlet-A'    12.6200 eV   98.24 nm  f=0.0441  <S**2>=0.000
       7 -> 15        -0.31628
       8 -> 16        -0.13308
       9 -> 17         0.57041
      10 -> 19        -0.13390
      11 -> 22        -0.10743

 Excited State  44:      Singlet-A'    12.8049 eV   96.83 nm  f=0.0074  <S**2>=0.000
       9 -> 18         0.32963
      12 -> 28         0.61276

 Excited State  45:      Singlet-A"    12.8332 eV   96.61 nm  f=0.0006  <S**2>=0.000
       6 -> 13         0.57205
       8 -> 17        -0.35077
       8 -> 18         0.12183

 Excited State  46:      Singlet-A'    12.8838 eV   96.23 nm  f=0.0083  <S**2>=0.000
       8 -> 16        -0.37262
       9 -> 18         0.18492
      10 -> 21         0.47980
      11 -> 22         0.29823

 Excited State  47:      Singlet-A'    12.9114 eV   96.03 nm  f=0.0053  <S**2>=0.000
       9 -> 18         0.38261
      10 -> 21        -0.36781
      11 -> 22         0.36086
      12 -> 28        -0.18260
      12 -> 29         0.17825

 Excited State  48:      Singlet-A"    13.0158 eV   95.26 nm  f=0.0080  <S**2>=0.000
       6 -> 13         0.26197
       8 -> 17         0.58836
       8 -> 18         0.22880
      11 -> 23        -0.11102

 Excited State  49:      Singlet-A'    13.0216 eV   95.21 nm  f=0.0978  <S**2>=0.000
       8 -> 16        -0.17530
       8 -> 20         0.10342
       9 -> 18        -0.34530
      10 -> 21        -0.21825
      11 -> 22         0.40333
      12 -> 28         0.19625
      12 -> 29        -0.24828

 Excited State  50:      Singlet-A"    13.2726 eV   93.41 nm  f=0.0175  <S**2>=0.000
       6 -> 13        -0.11515
       7 -> 16        -0.16352
       8 -> 18         0.57907
       9 -> 20         0.21174
      11 -> 23         0.23445

 Excited State  51:      Singlet-A'    13.2782 eV   93.37 nm  f=0.0196  <S**2>=0.000
       7 -> 17        -0.13408
       8 -> 16         0.35002
       9 -> 19         0.46922
       9 -> 21        -0.11833
      10 -> 21         0.18229
      11 -> 22         0.19742

 Excited State  52:      Singlet-A"    13.3229 eV   93.06 nm  f=0.0000  <S**2>=0.000
       8 -> 18        -0.18429
       9 -> 20         0.67239

 Excited State  53:      Singlet-A'    13.4090 eV   92.46 nm  f=0.0234  <S**2>=0.000
       7 -> 17         0.25498
       7 -> 18         0.14039
       8 -> 16        -0.24174
       9 -> 19         0.50305
       9 -> 21         0.15007
      10 -> 21        -0.14048
      11 -> 22        -0.14912

 Excited State  54:      Singlet-A"    13.4497 eV   92.18 nm  f=0.0000  <S**2>=0.000
       7 -> 16         0.38631
      11 -> 23         0.56829

 Excited State  55:      Singlet-A"    13.5262 eV   91.66 nm  f=0.0388  <S**2>=0.000
       6 -> 13        -0.10564
       7 -> 16         0.41378
      10 -> 22         0.51856
      11 -> 23        -0.15345

 Excited State  56:      Singlet-A'    13.5371 eV   91.59 nm  f=0.1776  <S**2>=0.000
       7 -> 17        -0.14729
       9 -> 18        -0.15971
       9 -> 21         0.18598
      12 -> 28         0.14283
      12 -> 29         0.57332
      12 -> 33         0.10358

 Excited State  57:      Singlet-A"    13.5585 eV   91.44 nm  f=0.0179  <S**2>=0.000
       7 -> 16        -0.32919
       8 -> 18        -0.15296
       8 -> 19         0.28767
      10 -> 22         0.44203
      11 -> 23         0.22922
      11 -> 25        -0.11125

 Excited State  58:      Singlet-A"    13.7068 eV   90.45 nm  f=0.0024  <S**2>=0.000
       8 -> 19         0.17675
      11 -> 24         0.68249

 Excited State  59:      Singlet-A'    13.7350 eV   90.27 nm  f=0.0176  <S**2>=0.000
       7 -> 17         0.58670
       7 -> 18        -0.14771
       8 -> 20        -0.17000
       9 -> 21        -0.14777
      12 -> 29         0.12864
      12 -> 30         0.12124

 Excited State  60:      Singlet-A"    13.8576 eV   89.47 nm  f=0.0228  <S**2>=0.000
       7 -> 16         0.10420
       8 -> 19         0.54155
      11 -> 24        -0.13137
      11 -> 25         0.36090

 Excited State  61:      Singlet-A'    13.8801 eV   89.32 nm  f=0.0001  <S**2>=0.000
       7 -> 18        -0.39665
       9 -> 21         0.53548
      12 -> 29        -0.10318

 Excited State  62:      Singlet-A'    13.9013 eV   89.19 nm  f=0.0956  <S**2>=0.000
       7 -> 17         0.12394
       8 -> 16         0.10301
       8 -> 20         0.62504
      10 -> 24         0.15190
      12 -> 30         0.13507

 Excited State  63:      Singlet-A'    14.0305 eV   88.37 nm  f=0.0111  <S**2>=0.000
       6 -> 14        -0.13590
       6 -> 15         0.10280
       7 -> 18         0.45581
       7 -> 19         0.16387
       8 -> 20        -0.11438
       9 -> 21         0.30197
      10 -> 23         0.20913
      12 -> 30         0.18888

 Excited State  64:      Singlet-A"    14.1834 eV   87.42 nm  f=0.0326  <S**2>=0.000
       7 -> 20         0.11709
       8 -> 21         0.56383
      11 -> 25         0.37498

 Excited State  65:      Singlet-A'    14.1871 eV   87.39 nm  f=0.0150  <S**2>=0.000
       7 -> 18        -0.19322
       7 -> 19        -0.11365
      10 -> 23         0.35340
      12 -> 30         0.51685

 Excited State  66:      Singlet-A"    14.2235 eV   87.17 nm  f=0.0012  <S**2>=0.000
       7 -> 20        -0.15430
       8 -> 21         0.15547
      11 -> 25        -0.11545
      12 -> 31         0.65378

 Excited State  67:      Singlet-A"    14.2886 eV   86.77 nm  f=0.0915  <S**2>=0.000
       7 -> 20         0.38049
       8 -> 19        -0.12068
       8 -> 21        -0.34500
       9 -> 22        -0.19491
      11 -> 25         0.29762
      12 -> 31         0.26189

 Excited State  68:      Singlet-A'    14.3360 eV   86.48 nm  f=0.1038  <S**2>=0.000
       6 -> 14         0.43122
       7 -> 18         0.10929
      10 -> 23        -0.39562
      12 -> 30         0.27894

 Excited State  69:      Singlet-A'    14.3686 eV   86.29 nm  f=0.0060  <S**2>=0.000
       6 -> 14         0.48527
       7 -> 19        -0.14341
       9 -> 23        -0.12725
      10 -> 23         0.29333
      12 -> 30        -0.23436

 Excited State  70:      Singlet-A"    14.4100 eV   86.04 nm  f=0.0086  <S**2>=0.000
       7 -> 20         0.32146
       9 -> 22         0.62734

 Excited State  71:      Singlet-A'    14.4619 eV   85.73 nm  f=0.0849  <S**2>=0.000
       7 -> 19        -0.18560
      10 -> 24         0.48269
      12 -> 32        -0.44248

 Excited State  72:      Singlet-A'    14.5401 eV   85.27 nm  f=0.1141  <S**2>=0.000
       7 -> 19        -0.20636
       8 -> 22         0.17381
      10 -> 24         0.34510
      10 -> 25        -0.12669
      12 -> 32         0.48450

 Excited State  73:      Singlet-A'    14.5875 eV   84.99 nm  f=0.0217  <S**2>=0.000
       6 -> 15        -0.11538
       7 -> 19         0.52327
      10 -> 23         0.13840
      10 -> 24         0.25343
      10 -> 25         0.20361
      12 -> 33         0.10119

 Excited State  74:      Singlet-A"    14.6208 eV   84.80 nm  f=0.2534  <S**2>=0.000
       6 -> 13        -0.10607
       7 -> 20         0.42219
       8 -> 19         0.16388
       8 -> 21         0.14677
       9 -> 22        -0.23752
      11 -> 25        -0.25161
      12 -> 34        -0.28385

 Excited State  75:      Singlet-A'    14.7156 eV   84.25 nm  f=0.0002  <S**2>=0.000
       6 -> 15         0.11327
       7 -> 19        -0.18281
      10 -> 25         0.63478
      12 -> 33        -0.16148

 Excited State  76:      Singlet-A"    14.9059 eV   83.18 nm  f=0.0790  <S**2>=0.000
       7 -> 20         0.13170
      11 -> 25        -0.12726
      12 -> 34         0.63606

 Excited State  77:      Singlet-A'    14.9062 eV   83.18 nm  f=0.0040  <S**2>=0.000
       7 -> 21         0.49631
       8 -> 22        -0.29213
       9 -> 23         0.28252
      11 -> 26        -0.11199
      12 -> 33         0.25184

 Excited State  78:      Singlet-A'    14.9379 eV   83.00 nm  f=0.1101  <S**2>=0.000
       6 -> 15        -0.15336
       7 -> 21         0.41108
       8 -> 22         0.30124
      11 -> 26         0.27105
      12 -> 33        -0.33729

 Excited State  79:      Singlet-A'    15.0579 eV   82.34 nm  f=0.0261  <S**2>=0.000
       7 -> 21        -0.22898
       9 -> 23         0.48033
       9 -> 24        -0.16119
      11 -> 26         0.36895

 Excited State  80:      Singlet-A'    15.1160 eV   82.02 nm  f=0.0461  <S**2>=0.000
       6 -> 15        -0.15693
       8 -> 22         0.37944
       9 -> 24         0.21249
       9 -> 25         0.10339
      12 -> 33         0.38397
      12 -> 35         0.23470
      12 -> 36         0.11153

 Excited State  81:      Singlet-A'    15.2536 eV   81.28 nm  f=0.1212  <S**2>=0.000
       6 -> 15        -0.12987
       8 -> 22        -0.27727
       9 -> 23        -0.28168
       9 -> 24         0.24979
      11 -> 26         0.39241
      12 -> 35         0.17395

 Excited State  82:      Singlet-A'    15.3367 eV   80.84 nm  f=0.0418  <S**2>=0.000
       9 -> 23         0.17678
       9 -> 24         0.52836
       9 -> 25        -0.12655
      11 -> 26        -0.12110
      11 -> 27        -0.25764
      12 -> 33        -0.11641
      12 -> 35        -0.17106
      12 -> 36        -0.12266

 Excited State  83:      Singlet-A"    15.4145 eV   80.43 nm  f=0.0014  <S**2>=0.000
       8 -> 23         0.69631

 Excited State  84:      Singlet-A'    15.4586 eV   80.20 nm  f=0.0217  <S**2>=0.000
       6 -> 15         0.51699
       6 -> 17         0.11766
       7 -> 19         0.10502
       7 -> 23         0.11417
       9 -> 25        -0.12226
      11 -> 26         0.11036
      12 -> 35         0.29155

 Excited State  85:      Singlet-A'    15.5213 eV   79.88 nm  f=0.0517  <S**2>=0.000
       6 -> 15        -0.17770
       7 -> 23        -0.10757
       9 -> 25        -0.27191
      11 -> 26        -0.19797
      11 -> 27         0.25732
      12 -> 33        -0.15727
      12 -> 35         0.41591
      12 -> 36        -0.20898

 Excited State  86:      Singlet-A"    15.5656 eV   79.65 nm  f=0.0049  <S**2>=0.000
       7 -> 22         0.62925
       8 -> 24        -0.14150
      10 -> 26         0.26891

 Excited State  87:      Singlet-A'    15.6132 eV   79.41 nm  f=0.0401  <S**2>=0.000
       9 -> 25         0.50123
      11 -> 27        -0.28650
      12 -> 35         0.25976
      12 -> 36        -0.22210

 Excited State  88:      Singlet-A"    15.6536 eV   79.21 nm  f=0.0003  <S**2>=0.000
       8 -> 24         0.67917
      10 -> 26         0.14936

 Excited State  89:      Singlet-A"    15.7251 eV   78.84 nm  f=0.0759  <S**2>=0.000
       6 -> 16         0.17430
       7 -> 22        -0.23663
       8 -> 25         0.13891
      10 -> 26         0.59702

 Excited State  90:      Singlet-A'    15.7497 eV   78.72 nm  f=0.1010  <S**2>=0.000
       6 -> 18        -0.13220
       7 -> 24        -0.10816
       9 -> 24         0.19997
       9 -> 25         0.30715
      11 -> 27         0.49261
      12 -> 36        -0.12174
      12 -> 37        -0.11188

 Excited State  91:      Singlet-A"    15.9250 eV   77.85 nm  f=0.0034  <S**2>=0.000
       6 -> 16         0.64069
       8 -> 25        -0.17207
      11 -> 28        -0.18664

 Excited State  92:      Singlet-A'    15.9271 eV   77.84 nm  f=0.0238  <S**2>=0.000
       6 -> 17         0.16652
       7 -> 23        -0.30245
      12 -> 33        -0.11547
      12 -> 36         0.53553
      12 -> 37        -0.10194

 Excited State  93:      Singlet-A"    15.9476 eV   77.74 nm  f=0.0384  <S**2>=0.000
       6 -> 16         0.16913
      11 -> 28         0.67640

 Excited State  94:      Singlet-A"    16.0940 eV   77.04 nm  f=0.0418  <S**2>=0.000
       6 -> 16         0.14826
       8 -> 25         0.59140
      10 -> 26        -0.10108
      10 -> 27         0.26820
      11 -> 29         0.12663

 Excited State  95:      Singlet-A'    16.1452 eV   76.79 nm  f=0.0026  <S**2>=0.000
       6 -> 17         0.62388
       6 -> 18         0.20311
      12 -> 37         0.13685

 Excited State  96:      Singlet-A"    16.1780 eV   76.64 nm  f=0.0033  <S**2>=0.000
       8 -> 25        -0.23839
      10 -> 27         0.64589

 Excited State  97:      Singlet-A'    16.2004 eV   76.53 nm  f=0.0160  <S**2>=0.000
       7 -> 23         0.51055
      12 -> 36         0.15441
      12 -> 37        -0.40594

 Excited State  98:      Singlet-A'    16.3502 eV   75.83 nm  f=0.0146  <S**2>=0.000
       6 -> 18        -0.33637
       7 -> 23         0.25386
       7 -> 24        -0.27037
      12 -> 37         0.42464

 Excited State  99:      Singlet-A"    16.3840 eV   75.67 nm  f=0.0054  <S**2>=0.000
      12 -> 38         0.70065

 Excited State 100:      Singlet-A'    16.4153 eV   75.53 nm  f=0.1038  <S**2>=0.000
       6 -> 18        -0.40332
       7 -> 24         0.45000
      10 -> 28        -0.30107

 Excited State 101:      Singlet-A"    16.5265 eV   75.02 nm  f=0.0458  <S**2>=0.000
       5 -> 13         0.15575
       8 -> 25        -0.10970
       9 -> 26         0.19758
      11 -> 29         0.63343

 Excited State 102:      Singlet-A"    16.5792 eV   74.78 nm  f=0.0007  <S**2>=0.000
       9 -> 26         0.67248
      11 -> 29        -0.19344

 Excited State 103:      Singlet-A'    16.5839 eV   74.76 nm  f=0.1050  <S**2>=0.000
       6 -> 18        -0.22235
       7 -> 23        -0.17503
       7 -> 24        -0.32297
       7 -> 25         0.37287
      12 -> 36        -0.11848
      12 -> 37        -0.25884

 Excited State 104:      Singlet-A'    16.6639 eV   74.40 nm  f=0.0988  <S**2>=0.000
       6 -> 17         0.13148
       6 -> 18        -0.22569
      10 -> 28         0.60446
      12 -> 39        -0.11241

 Excited State 105:      Singlet-A'    16.8067 eV   73.77 nm  f=0.0368  <S**2>=0.000
       6 -> 18         0.13007
       6 -> 19         0.46232
       7 -> 24         0.15897
       7 -> 25         0.40549
       8 -> 26        -0.13232

 Excited State 106:      Singlet-A"    16.8391 eV   73.63 nm  f=0.0056  <S**2>=0.000
       5 -> 13         0.24775
       6 -> 20         0.65051

 Excited State 107:      Singlet-A'    16.9176 eV   73.29 nm  f=0.1707  <S**2>=0.000
       6 -> 19         0.51511

 The electronic state is 1-A'.
 Alpha  occ. eigenvalues --  -18.79795 -10.01964  -9.94016  -0.95614  -0.67928
 Alpha  occ. eigenvalues --   -0.51794  -0.42939  -0.40499  -0.38924  -0.35624
 Alpha  occ. eigenvalues --   -0.33374  -0.21723
 Alpha virt. eigenvalues --   -0.06966   0.00321   0.03025   0.06515   0.07037
 Alpha virt. eigenvalues --    0.07946   0.09977   0.09978   0.11764   0.14087
 Alpha virt. eigenvalues --    0.15971   0.16980   0.18290   0.21967   0.23819

 Mulliken charges:
               1
     1  C    0.725693
     2  C    0.073634
     3  O   -0.183667
     4  H   -0.061432
     5  H   -0.061432
     6  H   -0.177066
     7  H   -0.315729
 Sum of Mulliken charges =  -0.00000

 Dipole moment (field-independent basis, Debye):
    X=              2.7595    Y=             -0.3647    Z=             -0.0000  Tot=              2.7835
 Quadrupole moment (field-independent basis, Debye-Ang):
   XX=            -21.6197   YY=            -18.4324   ZZ=            -18.1869
   XY=              0.7265   XZ=             -0.0000   YZ=              0.0000

 Normal termination of Gaussian 16 at Mon Mar 21 19:56:34 2022.
