 Gaussian 16, Revision C.01,
 Gaussian 16:  EM64L-G16RevC.01  3-Jul-2019

 --------------------------------------------------------------------
 #P TD(Nstates=10000) blyp/Gen SCF(maxcycles=100) Int(Grid=ultrafine)
 --------------------------------------------------------------------

 ---------------------
 xGDB7_00001_tier4.com
 ---------------------
 Symbolic Z-matrix:
 Charge =  0 Multiplicity = 1

                         Standard orientation:
 ---------------------------------------------------------------------
 Center     Atomic      Atomic             Coordinates (Angstroms)
 Number     Number       Type             X           Y           Z
 ---------------------------------------------------------------------
      1          8           0        0.000000   -0.000000    0.116015
      2          1           0        0.000000    0.761895   -0.464058
      3          1           0       -0.000000   -0.761895   -0.464058
 ---------------------------------------------------------------------

 SCF Done:  E(RB-LYP) =  -76.3624890613     A.U. after    9 cycles

 Excitation energies and oscillator strengths:

 Excited State   1:      Singlet-B1     6.8513 eV  180.96 nm  f=0.0545  <S**2>=0.000
       5 ->  6         0.70661
 This state for optimization and/or second-order correction.
 Total Energy, E(TD-HF/TD-DFT) =  -76.1107077450
 Copying the excited state density for this state as the 1-particle RhoCI density.

 Excited State   2:      Singlet-A2     8.5809 eV  144.49 nm  f=0.0000  <S**2>=0.000
       5 ->  7         0.70687

 Excited State   3:      Singlet-A1     8.8690 eV  139.80 nm  f=0.0949  <S**2>=0.000
       4 ->  6         0.69847

 Excited State   4:      Singlet-B1    10.0416 eV  123.47 nm  f=0.0033  <S**2>=0.000
       5 ->  9         0.70665

 Excited State   5:      Singlet-A1    10.4460 eV  118.69 nm  f=0.0003  <S**2>=0.000
       4 ->  9        -0.16653
       5 ->  8         0.67267

 Excited State   6:      Singlet-B2    10.6306 eV  116.63 nm  f=0.0128  <S**2>=0.000
       4 ->  7         0.70329

 Excited State   7:      Singlet-A2    11.1107 eV  111.59 nm  f=0.0000  <S**2>=0.000
       5 -> 10         0.70676

 Excited State   8:      Singlet-B1    11.8328 eV  104.78 nm  f=0.0483  <S**2>=0.000
       4 ->  8         0.18238
       5 -> 11         0.68121

 Excited State   9:      Singlet-B1    11.9858 eV  103.44 nm  f=0.0002  <S**2>=0.000
       4 ->  8         0.68274
       5 -> 11        -0.18081

 Excited State  10:      Singlet-A1    12.4191 eV   99.83 nm  f=0.0337  <S**2>=0.000
       3 ->  7        -0.12911
       4 ->  9         0.66619
       5 ->  8         0.12993

 Excited State  11:      Singlet-B2    12.8654 eV   96.37 nm  f=0.0024  <S**2>=0.000
       3 ->  6        -0.48051
       5 -> 12         0.51449

 Excited State  12:      Singlet-B2    12.9455 eV   95.77 nm  f=0.0626  <S**2>=0.000
       3 ->  6         0.45749
       4 -> 10        -0.38010
       5 -> 12         0.38104

 Excited State  13:      Singlet-B1    13.4406 eV   92.25 nm  f=0.0701  <S**2>=0.000
       5 -> 13         0.70371

 Excited State  14:      Singlet-B2    13.5680 eV   91.38 nm  f=0.3537  <S**2>=0.000
       3 ->  6         0.23623
       4 -> 10         0.58335
       5 -> 12         0.29349

 Excited State  15:      Singlet-A1    13.8041 eV   89.82 nm  f=0.0666  <S**2>=0.000
       4 -> 11         0.69597

 Excited State  16:      Singlet-A1    14.2363 eV   87.09 nm  f=0.0267  <S**2>=0.000
       3 ->  7         0.25006
       4 -> 13         0.12790
       5 -> 14         0.64527

 Excited State  17:      Singlet-A2    14.8949 eV   83.24 nm  f=0.0000  <S**2>=0.000
       4 -> 12         0.70668

 Excited State  18:      Singlet-A1    15.0466 eV   82.40 nm  f=0.0008  <S**2>=0.000
       3 ->  7         0.51883
       4 -> 13        -0.45805
       5 -> 14        -0.10103

 Excited State  19:      Singlet-A2    15.9993 eV   77.49 nm  f=0.0000  <S**2>=0.000
       3 ->  8         0.70080

 Excited State  20:      Singlet-B2    16.0886 eV   77.06 nm  f=0.0278  <S**2>=0.000
       3 ->  9         0.70451

 Excited State  21:      Singlet-B1    16.1870 eV   76.59 nm  f=0.0121  <S**2>=0.000
       4 -> 14         0.59895
       5 -> 15         0.37058

 Excited State  22:      Singlet-A2    16.3094 eV   76.02 nm  f=0.0000  <S**2>=0.000
       5 -> 16         0.69889

 Excited State  23:      Singlet-A1    16.3819 eV   75.68 nm  f=0.0382  <S**2>=0.000
       3 ->  7         0.30212
       3 -> 10         0.37892
       4 ->  9         0.11129
       4 -> 13         0.44492
       5 -> 14        -0.17247

 Excited State  24:      Singlet-B1    16.4390 eV   75.42 nm  f=0.1872  <S**2>=0.000
       4 -> 14        -0.36724
       5 -> 15         0.60002

 Excited State  25:      Singlet-A2    17.2113 eV   72.04 nm  f=0.0000  <S**2>=0.000
       5 -> 17         0.70535

 Excited State  26:      Singlet-A1    17.9232 eV   69.18 nm  f=0.2407  <S**2>=0.000
       3 ->  7        -0.16274
       3 -> 10         0.51836
       3 -> 16         0.11556
       4 -> 13        -0.20612
       4 -> 15         0.33542
       5 -> 14         0.11941

 Excited State  27:      Singlet-B2    18.1020 eV   68.49 nm  f=0.2043  <S**2>=0.000
       3 -> 11         0.65070
       4 -> 16        -0.21886
       4 -> 17        -0.11312

 Excited State  28:      Singlet-A1    18.2170 eV   68.06 nm  f=0.0821  <S**2>=0.000
       3 -> 10        -0.27162
       4 -> 13         0.12043
       4 -> 15         0.62144

 Excited State  29:      Singlet-B2    18.2919 eV   67.78 nm  f=0.0172  <S**2>=0.000
       3 -> 11         0.17733
       4 -> 16         0.65702
       4 -> 17        -0.17408

 Excited State  30:      Singlet-B1    19.0564 eV   65.06 nm  f=0.1048  <S**2>=0.000
       3 -> 12         0.69941

 Excited State  31:      Singlet-B2    19.3369 eV   64.12 nm  f=0.0044  <S**2>=0.000
       3 -> 13        -0.48223
       4 -> 17         0.50387

 Excited State  32:      Singlet-B2    19.5730 eV   63.34 nm  f=0.0281  <S**2>=0.000
       3 -> 11         0.15090
       3 -> 13         0.50677
       4 -> 16         0.10262
       4 -> 17         0.43920

 Excited State  33:      Singlet-A2    20.1481 eV   61.54 nm  f=0.0000  <S**2>=0.000
       3 -> 14         0.70701

 Excited State  34:      Singlet-A2    20.6014 eV   60.18 nm  f=0.0000  <S**2>=0.000
       5 -> 18         0.70705

 Excited State  35:      Singlet-B1    21.5174 eV   57.62 nm  f=0.2136  <S**2>=0.000
       4 -> 20        -0.14345
       5 -> 19         0.68256

 Excited State  36:      Singlet-A1    22.2311 eV   55.77 nm  f=0.0781  <S**2>=0.000
       3 -> 16         0.16603
       3 -> 17        -0.10992
       4 -> 19         0.17310
       5 -> 20         0.64316

 Excited State  37:      Singlet-B2    22.2975 eV   55.60 nm  f=0.0162  <S**2>=0.000
       3 -> 15         0.68754
       4 -> 18         0.14758

 Excited State  38:      Singlet-A1    22.6387 eV   54.77 nm  f=0.0005  <S**2>=0.000
       2 ->  6        -0.10382
       3 -> 16         0.53856
       3 -> 17        -0.31595
       4 -> 19        -0.28840
       5 -> 20        -0.10245

 Excited State  39:      Singlet-B2    22.7234 eV   54.56 nm  f=0.0090  <S**2>=0.000
       3 -> 15        -0.10434
       4 -> 18         0.56143
       5 -> 22        -0.41412

 Excited State  40:      Singlet-B1    22.9297 eV   54.07 nm  f=0.0005  <S**2>=0.000
       5 -> 21         0.70461

 Excited State  41:      Singlet-A1    23.0344 eV   53.83 nm  f=0.0442  <S**2>=0.000
       2 ->  6        -0.11074
       3 -> 16         0.17433
       3 -> 17        -0.14357
       4 -> 19         0.61651
       4 -> 21        -0.10185
       5 -> 20        -0.20691

 Excited State  42:      Singlet-A1    23.8666 eV   51.95 nm  f=0.0204  <S**2>=0.000
       2 ->  6        -0.34079
       3 -> 16         0.25479
       3 -> 17         0.53572

 Excited State  43:      Singlet-B2    23.8842 eV   51.91 nm  f=0.3457  <S**2>=0.000
       3 -> 19        -0.13950
       4 -> 18         0.37118
       5 -> 22         0.55069

 Excited State  44:      Singlet-B1    24.3433 eV   50.93 nm  f=0.2733  <S**2>=0.000
       4 -> 20         0.68584
       5 -> 19         0.13063

 Excited State  45:      Singlet-A2    24.9939 eV   49.61 nm  f=0.0000  <S**2>=0.000
       4 -> 22         0.70690

 Excited State  46:      Singlet-A1    25.2555 eV   49.09 nm  f=0.2984  <S**2>=0.000
       2 ->  6        -0.33592
       3 -> 16        -0.13631
       3 -> 17        -0.19371
       3 -> 18        -0.15247
       4 -> 21         0.53660

 Excited State  47:      Singlet-A1    25.8007 eV   48.05 nm  f=0.0013  <S**2>=0.000
       2 ->  6         0.46021
       3 -> 16         0.17913
       3 -> 17         0.14168
       3 -> 18        -0.23482
       4 -> 21         0.35392
       5 -> 20        -0.11389

 Excited State  48:      Singlet-B2    26.6089 eV   46.59 nm  f=0.0315  <S**2>=0.000
       2 ->  7         0.68553
       3 -> 19         0.14003

 Excited State  49:      Singlet-B2    27.3538 eV   45.33 nm  f=0.0954  <S**2>=0.000
       2 ->  7        -0.11583
       3 -> 19         0.65598
       3 -> 21         0.19922

 Excited State  50:      Singlet-A1    27.5878 eV   44.94 nm  f=0.2617  <S**2>=0.000
       2 ->  6         0.10664
       2 ->  9         0.36210
       3 -> 18         0.54588
       4 -> 21         0.19235

 Excited State  51:      Singlet-B1    27.9043 eV   44.43 nm  f=0.0109  <S**2>=0.000
       2 ->  8         0.69560
       3 -> 22         0.10764

 Excited State  52:      Singlet-A2    27.9879 eV   44.30 nm  f=0.0000  <S**2>=0.000
       3 -> 20         0.70698

 Excited State  53:      Singlet-A1    27.9953 eV   44.29 nm  f=0.0925  <S**2>=0.000
       2 ->  9         0.60067
       3 -> 18        -0.32631
       4 -> 21        -0.11677

 Excited State  54:      Singlet-B2    29.0532 eV   42.67 nm  f=0.0150  <S**2>=0.000
       2 -> 10         0.70114

 Excited State  55:      Singlet-B1    29.6111 eV   41.87 nm  f=0.2491  <S**2>=0.000
       3 -> 22         0.68556
       5 -> 23         0.10875

 Excited State  56:      Singlet-A1    29.7470 eV   41.68 nm  f=0.0061  <S**2>=0.000
       2 -> 11         0.68951
       2 -> 13        -0.11124

 Excited State  57:      Singlet-B2    29.7702 eV   41.65 nm  f=0.3027  <S**2>=0.000
       3 -> 19        -0.15839
       3 -> 21         0.66521

 Excited State  58:      Singlet-B1    30.5757 eV   40.55 nm  f=0.0060  <S**2>=0.000
       5 -> 23         0.69446

 Excited State  59:      Singlet-A2    30.7311 eV   40.34 nm  f=0.0000  <S**2>=0.000
       2 -> 12         0.70698

 Excited State  60:      Singlet-A1    31.4585 eV   39.41 nm  f=0.0138  <S**2>=0.000
       2 -> 13         0.68231
       2 -> 15        -0.10956

 Excited State  61:      Singlet-B1    31.9932 eV   38.75 nm  f=0.0115  <S**2>=0.000
       2 -> 14         0.70402

 Excited State  62:      Singlet-A1    32.8057 eV   37.79 nm  f=0.0193  <S**2>=0.000
       2 -> 15        -0.17563
       4 -> 23         0.67227

 Excited State  63:      Singlet-A2    33.4510 eV   37.06 nm  f=0.0000  <S**2>=0.000
       5 -> 24         0.70684

 Excited State  64:      Singlet-B2    34.2627 eV   36.19 nm  f=0.0157  <S**2>=0.000
       2 -> 16         0.67082
       2 -> 17        -0.19896

 Excited State  65:      Singlet-A1    34.5539 eV   35.88 nm  f=0.0146  <S**2>=0.000
       2 -> 15         0.65079
       4 -> 23         0.13141
       5 -> 25         0.17235

 Excited State  66:      Singlet-B2    35.2254 eV   35.20 nm  f=0.0114  <S**2>=0.000
       2 -> 16         0.15859
       2 -> 17         0.64589
       3 -> 23        -0.15008
       4 -> 24         0.18043

 Excited State  67:      Singlet-B2    35.6490 eV   34.78 nm  f=0.0035  <S**2>=0.000
       2 -> 16        -0.13625
       2 -> 17        -0.17198
       4 -> 24         0.66109

 Excited State  68:      Singlet-B2    37.1896 eV   33.34 nm  f=0.0507  <S**2>=0.000
       2 -> 18         0.22764
       3 -> 23         0.64496
       4 -> 24         0.11879

 Excited State  69:      Singlet-B1    38.6096 eV   32.11 nm  f=0.0067  <S**2>=0.000
       5 -> 26         0.70331

 Excited State  70:      Singlet-A1    38.8470 eV   31.92 nm  f=0.0020  <S**2>=0.000
       2 -> 19         0.68463
       3 -> 24         0.16666

 Excited State  71:      Singlet-B2    38.8760 eV   31.89 nm  f=0.0049  <S**2>=0.000
       2 -> 18         0.66676
       3 -> 23        -0.20519

 Excited State  72:      Singlet-A1    38.9956 eV   31.79 nm  f=0.0068  <S**2>=0.000
       2 -> 19        -0.11867
       3 -> 24         0.33310
       4 -> 26        -0.28167
       5 -> 25         0.53568

 Excited State  73:      Singlet-B1    39.8909 eV   31.08 nm  f=0.0005  <S**2>=0.000
       2 -> 20         0.58560
       4 -> 25         0.39569

 Excited State  74:      Singlet-B1    40.1191 eV   30.90 nm  f=0.0024  <S**2>=0.000
       2 -> 20        -0.39172
       4 -> 25         0.58328

 Excited State  75:      Singlet-A1    40.1747 eV   30.86 nm  f=0.0309  <S**2>=0.000
       2 -> 19        -0.11509
       3 -> 24         0.52759
       4 -> 26         0.42752
       5 -> 25        -0.11772

 Excited State  76:      Singlet-A2    41.0084 eV   30.23 nm  f=0.0000  <S**2>=0.000
       2 -> 22         0.70667

 Excited State  77:      Singlet-A1    41.0464 eV   30.21 nm  f=0.0021  <S**2>=0.000
       2 -> 21         0.70062

 Excited State  78:      Singlet-A2    43.9408 eV   28.22 nm  f=0.0000  <S**2>=0.000
       3 -> 25         0.70700

 Excited State  79:      Singlet-B2    44.6713 eV   27.75 nm  f=0.0595  <S**2>=0.000
       3 -> 26         0.70365

 Excited State  80:      Singlet-A1    46.2829 eV   26.79 nm  f=0.0023  <S**2>=0.000
       2 -> 23        -0.36212
       3 -> 24        -0.20428
       3 -> 27         0.13937
       4 -> 26         0.41489
       5 -> 25         0.30441

 Excited State  81:      Singlet-A2    46.8770 eV   26.45 nm  f=0.0000  <S**2>=0.000
       5 -> 27         0.70672

 Excited State  82:      Singlet-B2    49.0188 eV   25.29 nm  f=0.0359  <S**2>=0.000
       4 -> 27         0.68646
       5 -> 29         0.16017

 Excited State  83:      Singlet-A1    49.8528 eV   24.87 nm  f=0.0945  <S**2>=0.000
       2 -> 23         0.58264
       3 -> 24        -0.12775
       3 -> 27         0.25030
       4 -> 26         0.16554
       5 -> 25         0.16401

 Excited State  84:      Singlet-B1    50.1051 eV   24.74 nm  f=0.0778  <S**2>=0.000
       5 -> 28         0.70217

 Excited State  85:      Singlet-B2    51.3430 eV   24.15 nm  f=0.0269  <S**2>=0.000
       2 -> 24         0.40601
       4 -> 27        -0.10671
       5 -> 29         0.55977

 Excited State  86:      Singlet-A1    51.8555 eV   23.91 nm  f=0.0160  <S**2>=0.000
       3 -> 27         0.13078
       4 -> 28         0.69086

 Excited State  87:      Singlet-B2    51.8884 eV   23.89 nm  f=0.1576  <S**2>=0.000
       2 -> 24         0.57504
       4 -> 27         0.11137
       5 -> 29        -0.38662

 Excited State  88:      Singlet-A2    52.7887 eV   23.49 nm  f=0.0000  <S**2>=0.000
       4 -> 29         0.70672

 Excited State  89:      Singlet-A1    54.8181 eV   22.62 nm  f=0.0124  <S**2>=0.000
       2 -> 23        -0.12662
       2 -> 26         0.26153
       3 -> 27         0.50321
       4 -> 26        -0.10476
       5 -> 25        -0.11450
       5 -> 30         0.32821

 Excited State  90:      Singlet-A1    55.5481 eV   22.32 nm  f=0.0405  <S**2>=0.000
       2 -> 26        -0.11883
       3 -> 27        -0.28816
       4 -> 32        -0.11990
       5 -> 30         0.61479

 Excited State  91:      Singlet-B2    56.1301 eV   22.09 nm  f=0.0112  <S**2>=0.000
       3 -> 28         0.69856

 Excited State  92:      Singlet-B1    56.2740 eV   22.03 nm  f=0.1261  <S**2>=0.000
       2 -> 25         0.69730
       3 -> 29        -0.10032

 Excited State  93:      Singlet-B1    56.9676 eV   21.76 nm  f=0.0003  <S**2>=0.000
       3 -> 29        -0.38848
       4 -> 30         0.58566

 Excited State  94:      Singlet-A1    57.1749 eV   21.69 nm  f=0.1144  <S**2>=0.000
       2 -> 26         0.63883
       3 -> 27        -0.21700

 Excited State  95:      Singlet-B1    57.5406 eV   21.55 nm  f=0.2052  <S**2>=0.000
       3 -> 29         0.50568
       4 -> 30         0.32151
       5 -> 32         0.36345

 Excited State  96:      Singlet-A2    58.1459 eV   21.32 nm  f=0.0000  <S**2>=0.000
       5 -> 31         0.70422

 Excited State  97:      Singlet-B1    58.6910 eV   21.12 nm  f=0.1960  <S**2>=0.000
       3 -> 29        -0.27711
       4 -> 30        -0.22256
       5 -> 32         0.60487

 Excited State  98:      Singlet-B2    60.1928 eV   20.60 nm  f=0.0153  <S**2>=0.000
       4 -> 31         0.70341

 Excited State  99:      Singlet-A1    61.0253 eV   20.32 nm  f=0.2362  <S**2>=0.000
       4 -> 32         0.68490

 Excited State 100:      Singlet-A2    61.0312 eV   20.31 nm  f=0.0000  <S**2>=0.000
       3 -> 30         0.70309

 Excited State 101:      Singlet-A1    64.3610 eV   19.26 nm  f=0.0003  <S**2>=0.000
       2 -> 28         0.10915
       3 -> 31         0.69153

 Excited State 102:      Singlet-B2    64.6278 eV   19.18 nm  f=0.0714  <S**2>=0.000
       3 -> 32         0.69887

 Excited State 103:      Singlet-B2    65.2008 eV   19.02 nm  f=0.0836  <S**2>=0.000
       2 -> 27         0.70123

 Excited State 104:      Singlet-A2    66.2276 eV   18.72 nm  f=0.0000  <S**2>=0.000
       5 -> 33         0.70553

 Excited State 105:      Singlet-B2    68.8230 eV   18.01 nm  f=0.0096  <S**2>=0.000
       4 -> 33         0.69877

 Excited State 106:      Singlet-A2    68.9949 eV   17.97 nm  f=0.0000  <S**2>=0.000
       2 -> 29         0.70543

 Excited State 107:      Singlet-A1    69.7773 eV   17.77 nm  f=0.0037  <S**2>=0.000
       2 -> 28         0.64970
       3 -> 33        -0.17082
       4 -> 34        -0.11510

 Excited State 108:      Singlet-B1    71.0498 eV   17.45 nm  f=0.1344  <S**2>=0.000
       5 -> 34         0.69314

 Excited State 109:      Singlet-A1    71.6471 eV   17.30 nm  f=0.0064  <S**2>=0.000
       3 -> 33        -0.22573
       4 -> 34         0.66739

 Excited State 110:      Singlet-B1    72.9919 eV   16.99 nm  f=0.0460  <S**2>=0.000
       2 -> 30         0.70125

 Excited State 111:      Singlet-A1    73.8376 eV   16.79 nm  f=0.0268  <S**2>=0.000
       2 -> 28         0.18164
       3 -> 33         0.63681
       4 -> 34         0.19639

 Excited State 112:      Singlet-B2    75.7259 eV   16.37 nm  f=0.0033  <S**2>=0.000
       2 -> 31         0.57362
       3 -> 34         0.41062

 Excited State 113:      Singlet-B2    76.1419 eV   16.28 nm  f=0.0052  <S**2>=0.000
       2 -> 31        -0.41294
       3 -> 34         0.56700

 Excited State 114:      Singlet-A1    76.5977 eV   16.19 nm  f=0.0048  <S**2>=0.000
       2 -> 32         0.70330

 Excited State 115:      Singlet-B2    84.6653 eV   14.64 nm  f=0.0212  <S**2>=0.000
       2 -> 33         0.70339

 Excited State 116:      Singlet-A1    87.9142 eV   14.10 nm  f=0.1135  <S**2>=0.000
       2 -> 34        -0.20556
       4 -> 37        -0.20600
       5 -> 35         0.64057

 Excited State 117:      Singlet-A1    88.5337 eV   14.00 nm  f=0.0552  <S**2>=0.000
       2 -> 34         0.67314
       5 -> 35         0.18801

 Excited State 118:      Singlet-B1    89.3953 eV   13.87 nm  f=0.0742  <S**2>=0.000
       3 -> 36        -0.17608
       4 -> 35         0.64603
       5 -> 37         0.21563

 Excited State 119:      Singlet-B2    89.9934 eV   13.78 nm  f=0.2073  <S**2>=0.000
       3 -> 37         0.12324
       5 -> 36         0.68632

 Excited State 120:      Singlet-A2    89.9977 eV   13.78 nm  f=0.0000  <S**2>=0.000
       4 -> 36         0.70407

 Excited State 121:      Singlet-B1    92.0486 eV   13.47 nm  f=0.0210  <S**2>=0.000
       3 -> 36         0.20858
       4 -> 35        -0.15813
       5 -> 37         0.65587

 Excited State 122:      Singlet-A2    92.1309 eV   13.46 nm  f=0.0000  <S**2>=0.000
       3 -> 35         0.70455

 Excited State 123:      Singlet-B1    95.6993 eV   12.96 nm  f=0.1802  <S**2>=0.000
       3 -> 36         0.62991
       4 -> 35         0.19753
       5 -> 37        -0.14146
       5 -> 38         0.19827

 Excited State 124:      Singlet-A1    96.6428 eV   12.83 nm  f=0.3034  <S**2>=0.000
       4 -> 37         0.66753
       5 -> 35         0.20964

 Excited State 125:      Singlet-B2    98.4433 eV   12.59 nm  f=0.0715  <S**2>=0.000
       3 -> 37         0.69220
       5 -> 36        -0.10964

 Excited State 126:      Singlet-B1   104.8800 eV   11.82 nm  f=0.0457  <S**2>=0.000
       2 -> 35         0.60933
       5 -> 38        -0.34572

 Excited State 127:      Singlet-A1   105.5609 eV   11.75 nm  f=0.0100  <S**2>=0.000
       4 -> 38         0.70519

 Excited State 128:      Singlet-B1   105.7961 eV   11.72 nm  f=0.2886  <S**2>=0.000
       2 -> 35         0.35754
       3 -> 36        -0.14443
       5 -> 38         0.57974

 Excited State 129:      Singlet-A2   106.6163 eV   11.63 nm  f=0.0000  <S**2>=0.000
       2 -> 36         0.70631

 Excited State 130:      Singlet-B2   109.8526 eV   11.29 nm  f=0.0571  <S**2>=0.000
       3 -> 38         0.69480
       4 -> 39         0.11397

 Excited State 131:      Singlet-A1   110.3531 eV   11.24 nm  f=0.0063  <S**2>=0.000
       2 -> 37         0.70558

 Excited State 132:      Singlet-A2   114.0189 eV   10.87 nm  f=0.0000  <S**2>=0.000
       5 -> 39         0.70689

 Excited State 133:      Singlet-B2   117.4937 eV   10.55 nm  f=0.1744  <S**2>=0.000
       3 -> 38        -0.10602
       4 -> 39         0.69397

 Excited State 134:      Singlet-A1   121.1547 eV   10.23 nm  f=0.0899  <S**2>=0.000
       2 -> 38         0.11833
       3 -> 39         0.69315

 Excited State 135:      Singlet-A1   121.6019 eV   10.20 nm  f=0.0221  <S**2>=0.000
       2 -> 38         0.69682
       3 -> 39        -0.11746

 Excited State 136:      Singlet-B2   132.2879 eV    9.37 nm  f=0.0023  <S**2>=0.000
       2 -> 39         0.70691

 The electronic state is 1-A1.
 Alpha  occ. eigenvalues --  -18.80230  -0.91594  -0.48677  -0.33816  -0.26635
 Alpha virt. eigenvalues --   -0.02111   0.04883   0.10067   0.10246   0.14370
 Alpha virt. eigenvalues --    0.16819   0.21187   0.22572   0.25473   0.32653
 Alpha virt. eigenvalues --    0.33337   0.36882   0.49264   0.50405   0.54301

 Mulliken charges:
               1
     1  O   -0.169560
     2  H    0.084780
     3  H    0.084780
 Sum of Mulliken charges =   0.00000

 Dipole moment (field-independent basis, Debye):
    X=             -0.0000    Y=             -0.0000    Z=             -1.8176  Tot=              1.8176
 Quadrupole moment (field-independent basis, Debye-Ang):
   XX=             -7.9360   YY=             -4.6588   ZZ=             -6.6675
   XY=              0.0000   XZ=              0.0000   YZ=              0.0000

 Normal termination of Gaussian 16 at Mon Mar 21 20:06:16 2022.
