 Gaussian 16, Revision C.01,
 Gaussian 16:  EM64L-G16RevC.01  3-Jul-2019

 --------------------------------------------------------------------
 #P TD(Nstates=10000) blyp/Gen SCF(maxcycles=100) Int(Grid=ultrafine)
 --------------------------------------------------------------------

 ---------------------
 xGDB7_00001_tier4.com
 ---------------------
 Symbolic Z-matrix:
 Charge =  0 Multiplicity = 1

                         Standard orientation:
 ---------------------------------------------------------------------
 Center     Atomic      Atomic             Coordinates (Angstroms)
 Number     Number       Type             X           Y           Z
 ---------------------------------------------------------------------
      1          6           0        0.000000    0.000000    0.660866
      2          6           0        0.000000    0.000000   -0.660866
      3          1           0        0.000000    0.922586    1.229258
      4          1           0       -0.000000   -0.922586    1.229258
      5          1           0        0.000000    0.922586   -1.229258
      6          1           0       -0.000000   -0.922586   -1.229258
 ---------------------------------------------------------------------

 SCF Done:  E(RB-LYP) =  -78.4864865134     A.U. after    9 cycles

 Excitation energies and oscillator strengths:

 Excited State   1:      Singlet-B3U    7.1612 eV  173.13 nm  f=0.0598  <S**2>=0.000
       8 -> 10         0.70697
 This state for optimization and/or second-order correction.
 Total Energy, E(TD-HF/TD-DFT) =  -78.2233155406
 Copying the excited state density for this state as the 1-particle RhoCI density.

 Excited State   2:      Singlet-B2G    7.7350 eV  160.29 nm  f=0.0000  <S**2>=0.000
       8 -> 11         0.70647

 Excited State   3:      Singlet-B1G    7.7832 eV  159.30 nm  f=0.0000  <S**2>=0.000
       7 ->  9         0.70335

 Excited State   4:      Singlet-B1U    7.8028 eV  158.90 nm  f=0.3350  <S**2>=0.000
       8 ->  9         0.69456
       8 -> 20        -0.11167
       8 <-  9        -0.10259

 Excited State   5:      Singlet-B1G    8.5045 eV  145.79 nm  f=0.0000  <S**2>=0.000
       8 -> 12         0.70346

 Excited State   6:      Singlet-B3G    8.9772 eV  138.11 nm  f=0.0000  <S**2>=0.000
       7 -> 10         0.70665

 Excited State   7:      Singlet-B2G    9.4683 eV  130.95 nm  f=0.0000  <S**2>=0.000
       6 ->  9         0.70501

 Excited State   8:      Singlet-B2U    9.5842 eV  129.36 nm  f=0.0846  <S**2>=0.000
       7 -> 11         0.70574

 Excited State   9:      Singlet-B3U    9.6786 eV  128.10 nm  f=0.0421  <S**2>=0.000
       8 -> 13         0.69925

 Excited State  10:      Singlet-AU    10.0625 eV  123.21 nm  f=0.0000  <S**2>=0.000
       8 -> 14         0.70593

 Excited State  11:      Singlet-B1U   10.5369 eV  117.67 nm  f=0.1465  <S**2>=0.000
       6 -> 11        -0.12930
       7 -> 12         0.68984

 Excited State  12:      Singlet-AU    10.7110 eV  115.75 nm  f=0.0000  <S**2>=0.000
       5 ->  9         0.70583

 Excited State  13:      Singlet-B3U   10.7506 eV  115.33 nm  f=0.1725  <S**2>=0.000
       4 ->  9         0.10363
       8 -> 15         0.69179

 Excited State  14:      Singlet-AG    10.7618 eV  115.21 nm  f=0.0000  <S**2>=0.000
       6 -> 10         0.65747
       8 -> 16         0.25377

 Excited State  15:      Singlet-AG    11.1351 eV  111.35 nm  f=0.0000  <S**2>=0.000
       5 -> 12         0.10029
       6 -> 10        -0.22278
       7 -> 14        -0.23422
       8 -> 16         0.61641

 Excited State  16:      Singlet-B2U   11.1673 eV  111.02 nm  f=0.0768  <S**2>=0.000
       6 -> 12        -0.12349
       8 -> 17         0.68709

 Excited State  17:      Singlet-B1U   11.3363 eV  109.37 nm  f=0.2604  <S**2>=0.000
       6 -> 11         0.69324
       7 -> 12         0.12216

 Excited State  18:      Singlet-B2G   11.3445 eV  109.29 nm  f=0.0000  <S**2>=0.000
       8 -> 18         0.70465

 Excited State  19:      Singlet-B3G   11.5590 eV  107.26 nm  f=0.0000  <S**2>=0.000
       7 -> 13         0.69780

 Excited State  20:      Singlet-B1G   11.7972 eV  105.10 nm  f=0.0000  <S**2>=0.000
       8 -> 19         0.70695

 Excited State  21:      Singlet-B2U   11.9641 eV  103.63 nm  f=0.0571  <S**2>=0.000
       5 -> 10         0.65198
       6 -> 12        -0.26844

 Excited State  22:      Singlet-AG    12.1966 eV  101.65 nm  f=0.0000  <S**2>=0.000
       5 -> 12         0.21329
       6 -> 10        -0.10002
       7 -> 14         0.63650
       8 -> 16         0.15787

 Excited State  23:      Singlet-B2U   12.2168 eV  101.49 nm  f=0.2063  <S**2>=0.000
       5 -> 10         0.24407
       6 -> 12         0.62551
       7 -> 18         0.17294
       8 -> 17         0.11229

 Excited State  24:      Singlet-B3G   12.3709 eV  100.22 nm  f=0.0000  <S**2>=0.000
       5 -> 11        -0.12401
       7 -> 15         0.68619

 Excited State  25:      Singlet-B3G   12.5249 eV   98.99 nm  f=0.0000  <S**2>=0.000
       5 -> 11         0.69506
       7 -> 15         0.12185

 Excited State  26:      Singlet-AU    12.5593 eV   98.72 nm  f=0.0000  <S**2>=0.000
       7 -> 16         0.70690

 Excited State  27:      Singlet-B2G   12.8836 eV   96.23 nm  f=0.0000  <S**2>=0.000
       7 -> 17         0.67699
       8 -> 21        -0.19838

 Excited State  28:      Singlet-AG    13.2193 eV   93.79 nm  f=0.0000  <S**2>=0.000
       5 -> 12         0.13361
       6 -> 13         0.69308

 Excited State  29:      Singlet-B2G   13.2486 eV   93.58 nm  f=0.0000  <S**2>=0.000
       7 -> 17         0.19335
       8 -> 21         0.67465

 Excited State  30:      Singlet-B3G   13.3015 eV   93.21 nm  f=0.0000  <S**2>=0.000
       8 -> 22         0.70130

 Excited State  31:      Singlet-B1U   13.3225 eV   93.06 nm  f=0.0150  <S**2>=0.000
       4 -> 10         0.12694
       5 -> 14        -0.12558
       7 -> 19        -0.12528
       8 -> 20         0.66139

 Excited State  32:      Singlet-B2U   13.4726 eV   92.03 nm  f=0.3366  <S**2>=0.000
       5 -> 13         0.22636
       6 -> 12        -0.10362
       7 -> 18         0.64346

 Excited State  33:      Singlet-B3G   13.6043 eV   91.14 nm  f=0.0000  <S**2>=0.000
       6 -> 14         0.70620

 Excited State  34:      Singlet-AG    13.6744 eV   90.67 nm  f=0.0000  <S**2>=0.000
       4 -> 11        -0.11206
       5 -> 12         0.54390
       6 -> 13        -0.10729
       6 -> 15        -0.39811
       7 -> 14        -0.10720

 Excited State  35:      Singlet-B3U   13.9308 eV   89.00 nm  f=0.0440  <S**2>=0.000
       4 ->  9         0.61409
       5 -> 17        -0.11261
       6 -> 16         0.26977
       7 -> 22        -0.14664

 Excited State  36:      Singlet-B1U   14.0141 eV   88.47 nm  f=0.3433  <S**2>=0.000
       4 -> 10         0.19044
       7 -> 19         0.65741

 Excited State  37:      Singlet-B3U   14.4658 eV   85.71 nm  f=0.0985  <S**2>=0.000
       4 ->  9        -0.21210
       5 -> 17         0.10532
       6 -> 16         0.64515
       7 -> 22         0.13360

 Excited State  38:      Singlet-AG    14.5344 eV   85.30 nm  f=0.0000  <S**2>=0.000
       4 -> 11        -0.34592
       5 -> 12         0.26293
       6 -> 15         0.52769

 Excited State  39:      Singlet-B1G   14.5582 eV   85.16 nm  f=0.0000  <S**2>=0.000
       6 -> 17         0.68242
       7 -> 20        -0.18456

 Excited State  40:      Singlet-B1U   14.6143 eV   84.84 nm  f=0.0019  <S**2>=0.000
       4 -> 10         0.55923
       5 -> 14         0.31821
       6 -> 18         0.26309
       7 -> 19        -0.10525

 Excited State  41:      Singlet-B1G   14.6934 eV   84.38 nm  f=0.0000  <S**2>=0.000
       6 -> 17         0.18482
       7 -> 20         0.68165

 Excited State  42:      Singlet-B2U   14.7384 eV   84.12 nm  f=0.3493  <S**2>=0.000
       5 -> 13         0.62491
       6 -> 19        -0.25060
       7 -> 18        -0.15326

 Excited State  43:      Singlet-B3U   14.8393 eV   83.55 nm  f=0.0214  <S**2>=0.000
       8 -> 23         0.70024

 Excited State  44:      Singlet-B1U   14.9753 eV   82.79 nm  f=0.0315  <S**2>=0.000
       5 -> 14        -0.36452
       6 -> 18         0.59897

 Excited State  45:      Singlet-B2U   15.0100 eV   82.60 nm  f=0.0006  <S**2>=0.000
       7 -> 21         0.70169

 Excited State  46:      Singlet-B3U   15.1798 eV   81.68 nm  f=0.1698  <S**2>=0.000
       4 ->  9         0.12740
       5 -> 17        -0.19424
       7 -> 22         0.66062

 Excited State  47:      Singlet-B2U   15.2945 eV   81.06 nm  f=0.0002  <S**2>=0.000
       5 -> 15         0.68963
       6 -> 19        -0.14479

 Excited State  48:      Singlet-B1G   15.3543 eV   80.75 nm  f=0.0000  <S**2>=0.000
       8 -> 24         0.70628

 Excited State  49:      Singlet-B1U   15.4372 eV   80.32 nm  f=0.0126  <S**2>=0.000
       4 -> 10        -0.33764
       5 -> 14         0.48167
       6 -> 18         0.24910
       6 -> 21         0.13140
       7 -> 19         0.11272
       8 -> 20         0.16912

 Excited State  50:      Singlet-B1G   15.5499 eV   79.73 nm  f=0.0000  <S**2>=0.000
       5 -> 16         0.70687

 Excited State  51:      Singlet-AG    15.5726 eV   79.62 nm  f=0.0000  <S**2>=0.000
       4 -> 11         0.56976
       5 -> 12         0.20402
       6 -> 15         0.20891
       7 -> 14        -0.10360
       7 -> 30        -0.10130
       8 -> 26         0.16771

 Excited State  52:      Singlet-B2U   15.6924 eV   79.01 nm  f=0.2248  <S**2>=0.000
       5 -> 13         0.19790
       5 -> 15         0.12928
       6 -> 19         0.63057
       7 -> 18        -0.11933

 Excited State  53:      Singlet-B2G   15.7312 eV   78.81 nm  f=0.0000  <S**2>=0.000
       8 -> 25         0.70476

 Excited State  54:      Singlet-AG    15.7453 eV   78.74 nm  f=0.0000  <S**2>=0.000
       4 -> 11        -0.15637
       5 -> 19        -0.12308
       8 -> 26         0.67070

 Excited State  55:      Singlet-AU    15.8720 eV   78.12 nm  f=0.0000  <S**2>=0.000
       8 -> 27         0.70664

 Excited State  56:      Singlet-B3G   15.9126 eV   77.92 nm  f=0.0000  <S**2>=0.000
       4 -> 12         0.68638
       5 -> 18         0.12957
       7 -> 23         0.10128

 Excited State  57:      Singlet-B3U   16.1021 eV   77.00 nm  f=0.3631  <S**2>=0.000
       4 ->  9         0.13955
       5 -> 17         0.63848
       7 -> 22         0.13304
       8 -> 28        -0.19862

 Excited State  58:      Singlet-B3G   16.2013 eV   76.53 nm  f=0.0000  <S**2>=0.000
       5 -> 18         0.63476
       7 -> 23        -0.29547

 Excited State  59:      Singlet-B2G   16.3982 eV   75.61 nm  f=0.0000  <S**2>=0.000
       6 -> 20         0.70676

 Excited State  60:      Singlet-AU    16.7978 eV   73.81 nm  f=0.0000  <S**2>=0.000
       6 -> 22         0.70569

 Excited State  61:      Singlet-B3G   16.8261 eV   73.69 nm  f=0.0000  <S**2>=0.000
       4 -> 12        -0.13872
       5 -> 18         0.26656
       7 -> 23         0.62955

 Excited State  62:      Singlet-AG    16.8552 eV   73.56 nm  f=0.0000  <S**2>=0.000
       5 -> 19         0.68090
       7 -> 27        -0.10149
       8 -> 26         0.11580

 Excited State  63:      Singlet-B1U   16.8856 eV   73.43 nm  f=0.1212  <S**2>=0.000
       4 -> 13        -0.24272
       6 -> 21         0.59045
       7 -> 24         0.27295

 Excited State  64:      Singlet-B1U   17.1065 eV   72.48 nm  f=0.1583  <S**2>=0.000
       4 -> 13         0.65971
       6 -> 21         0.22007

 Excited State  65:      Singlet-B3U   17.3365 eV   71.52 nm  f=0.2239  <S**2>=0.000
       5 -> 17         0.13936
       8 -> 28         0.65673
       8 -> 32         0.14875

 Excited State  66:      Singlet-B2U   17.4763 eV   70.94 nm  f=0.0049  <S**2>=0.000
       4 -> 14         0.58956
       7 -> 25        -0.37316

 Excited State  67:      Singlet-AU    17.5340 eV   70.71 nm  f=0.0000  <S**2>=0.000
       7 -> 26         0.70321

 Excited State  68:      Singlet-B1U   17.5748 eV   70.55 nm  f=0.1558  <S**2>=0.000
       4 -> 15        -0.27702
       6 -> 21        -0.23672
       7 -> 24         0.57947
       7 -> 29         0.12784

 Excited State  69:      Singlet-B1G   17.6480 eV   70.25 nm  f=0.0000  <S**2>=0.000
       8 -> 29         0.70655

 Excited State  70:      Singlet-AU    17.6654 eV   70.18 nm  f=0.0000  <S**2>=0.000
       5 -> 20         0.67263
       8 -> 30        -0.19864

 Excited State  71:      Singlet-B2U   17.6991 eV   70.05 nm  f=0.1175  <S**2>=0.000
       4 -> 14         0.37775
       7 -> 25         0.58942

 Excited State  72:      Singlet-AG    17.7254 eV   69.95 nm  f=0.0000  <S**2>=0.000
       7 -> 27         0.68852

 Excited State  73:      Singlet-AU    17.7323 eV   69.92 nm  f=0.0000  <S**2>=0.000
       5 -> 20         0.19968
       8 -> 30         0.67721

 Excited State  74:      Singlet-B3G   17.9746 eV   68.98 nm  f=0.0000  <S**2>=0.000
       5 -> 21         0.70332

 Excited State  75:      Singlet-B2G   17.9878 eV   68.93 nm  f=0.0000  <S**2>=0.000
       5 -> 22        -0.36201
       8 -> 31         0.60231

 Excited State  76:      Singlet-B2G   18.0019 eV   68.87 nm  f=0.0000  <S**2>=0.000
       3 ->  9        -0.34813
       4 -> 16         0.19154
       5 -> 22         0.50125
       8 -> 31         0.29531

 Excited State  77:      Singlet-B1U   18.0089 eV   68.85 nm  f=0.2300  <S**2>=0.000
       4 -> 15         0.64101
       7 -> 24         0.23864

 Excited State  78:      Singlet-B2G   18.1588 eV   68.28 nm  f=0.0000  <S**2>=0.000
       4 -> 16         0.64680
       5 -> 22        -0.19500
       8 -> 31        -0.18939

 Excited State  79:      Singlet-B2U   18.1676 eV   68.24 nm  f=0.0460  <S**2>=0.000
       6 -> 24         0.15478
       8 -> 33         0.67695

 Excited State  80:      Singlet-B3U   18.1728 eV   68.22 nm  f=0.1101  <S**2>=0.000
       8 -> 28        -0.10800
       8 -> 32         0.68237

 Excited State  81:      Singlet-B2G   18.3899 eV   67.42 nm  f=0.0000  <S**2>=0.000
       3 ->  9         0.56368
       4 -> 16         0.19640
       5 -> 22         0.27405
       8 -> 31         0.11680
       8 -> 35         0.21179

 Excited State  82:      Singlet-AG    18.4099 eV   67.35 nm  f=0.0000  <S**2>=0.000
       3 -> 10         0.12006
       4 -> 18        -0.26808
       6 -> 23         0.63676

 Excited State  83:      Singlet-AU    18.4327 eV   67.26 nm  f=0.0000  <S**2>=0.000
       4 -> 17         0.70410

 Excited State  84:      Singlet-B1U   18.6797 eV   66.37 nm  f=0.0173  <S**2>=0.000
       8 -> 34         0.70086

 Excited State  85:      Singlet-B3G   18.8291 eV   65.85 nm  f=0.0000  <S**2>=0.000
       7 -> 28         0.70376

 Excited State  86:      Singlet-AG    18.8617 eV   65.73 nm  f=0.0000  <S**2>=0.000
       3 -> 10         0.39880
       4 -> 18         0.55829
       6 -> 23         0.15213

 Excited State  87:      Singlet-B2U   19.1020 eV   64.91 nm  f=0.0316  <S**2>=0.000
       5 -> 23         0.15479
       6 -> 24         0.63243
       7 -> 31         0.23423

 Excited State  88:      Singlet-AG    19.1927 eV   64.60 nm  f=0.0000  <S**2>=0.000
       3 -> 10         0.52914
       4 -> 18        -0.29185
       6 -> 23        -0.18313
       7 -> 30        -0.29978

 Excited State  89:      Singlet-B3G   19.3146 eV   64.19 nm  f=0.0000  <S**2>=0.000
       4 -> 19         0.52343
       6 -> 27        -0.46162
       7 -> 32        -0.10057

 Excited State  90:      Singlet-B1U   19.3571 eV   64.05 nm  f=0.0635  <S**2>=0.000
       3 -> 11         0.17601
       6 -> 25         0.67684

 Excited State  91:      Singlet-B3G   19.4260 eV   63.82 nm  f=0.0000  <S**2>=0.000
       4 -> 19         0.43902
       6 -> 27         0.52992
       7 -> 32        -0.10829

 Excited State  92:      Singlet-B3U   19.4554 eV   63.73 nm  f=0.2707  <S**2>=0.000
       4 -> 20        -0.13426
       6 -> 26         0.67875

 Excited State  93:      Singlet-B1U   19.6399 eV   63.13 nm  f=0.0947  <S**2>=0.000
       3 -> 11         0.59936
       6 -> 25        -0.16605
       7 -> 29        -0.30383

 Excited State  94:      Singlet-B2U   19.6463 eV   63.11 nm  f=0.0597  <S**2>=0.000
       5 -> 23         0.62885
       7 -> 31        -0.30512

 Excited State  95:      Singlet-B2G   19.8594 eV   62.43 nm  f=0.0000  <S**2>=0.000
       7 -> 33         0.65517
       8 -> 35        -0.26108

 Excited State  96:      Singlet-B1U   19.9572 eV   62.13 nm  f=0.0545  <S**2>=0.000
       3 -> 11         0.30072
       6 -> 35         0.10362
       7 -> 29         0.59865

 Excited State  97:      Singlet-AG    19.9615 eV   62.11 nm  f=0.0000  <S**2>=0.000
       3 -> 10         0.16232
       4 -> 18        -0.11173
       5 -> 24        -0.40797
       6 -> 23        -0.11776
       7 -> 30         0.50907

 Excited State  98:      Singlet-B3G   20.0204 eV   61.93 nm  f=0.0000  <S**2>=0.000
       4 -> 19         0.13324
       7 -> 32         0.68366

 Excited State  99:      Singlet-B2G   20.2072 eV   61.36 nm  f=0.0000  <S**2>=0.000
       3 ->  9        -0.18819
       7 -> 33         0.25933
       8 -> 35         0.60734
       8 -> 36         0.11116

 Excited State 100:      Singlet-AG    20.4312 eV   60.68 nm  f=0.0000  <S**2>=0.000
       4 -> 21         0.56568
       5 -> 24         0.36003
       7 -> 30         0.16141

 Excited State 101:      Singlet-B3U   20.4444 eV   60.64 nm  f=0.0001  <S**2>=0.000
       4 -> 20         0.68741
       6 -> 26         0.11289

 Excited State 102:      Singlet-B2U   20.4665 eV   60.58 nm  f=0.3482  <S**2>=0.000
       3 -> 12         0.43327
       5 -> 23        -0.23026
       6 -> 24         0.12680
       6 -> 29         0.20322
       7 -> 31        -0.40992
       7 -> 35        -0.11560

 Excited State 103:      Singlet-B1G   20.4787 eV   60.54 nm  f=0.0000  <S**2>=0.000
       4 -> 22         0.12023
       5 -> 26         0.57599
       7 -> 34         0.39188

 Excited State 104:      Singlet-B1G   20.5109 eV   60.45 nm  f=0.0000  <S**2>=0.000
       5 -> 26        -0.40116
       7 -> 34         0.58115

 Excited State 105:      Singlet-B3G   20.5705 eV   60.27 nm  f=0.0000  <S**2>=0.000
       5 -> 25         0.70050

 Excited State 106:      Singlet-AG    20.5833 eV   60.24 nm  f=0.0000  <S**2>=0.000
       6 -> 28         0.69936

 Excited State 107:      Singlet-B1G   20.6657 eV   60.00 nm  f=0.0000  <S**2>=0.000
       4 -> 22         0.69556

 Excited State 108:      Singlet-B1U   20.6828 eV   59.95 nm  f=0.0723  <S**2>=0.000
       5 -> 27         0.69744

 Excited State 109:      Singlet-B2U   20.8142 eV   59.57 nm  f=0.0165  <S**2>=0.000
       3 -> 12         0.50004
       5 -> 32         0.10288
       6 -> 24        -0.12183
       6 -> 29        -0.37102
       7 -> 31         0.25221

 Excited State 110:      Singlet-AG    21.0781 eV   58.82 nm  f=0.0000  <S**2>=0.000
       3 -> 13         0.13238
       4 -> 21         0.36213
       4 -> 25        -0.12191
       5 -> 24        -0.34866
       6 -> 32        -0.35328
       7 -> 30        -0.22155

 Excited State 111:      Singlet-B3G   21.3228 eV   58.15 nm  f=0.0000  <S**2>=0.000
       6 -> 30         0.69955

 Excited State 112:      Singlet-B2U   21.4933 eV   57.68 nm  f=0.0573  <S**2>=0.000
       3 -> 12         0.15120
       5 -> 28        -0.26206
       5 -> 32         0.14468
       6 -> 29         0.43075
       7 -> 31         0.15951
       7 -> 35         0.39886

 Excited State 113:      Singlet-AG    21.6246 eV   57.33 nm  f=0.0000  <S**2>=0.000
       3 -> 13         0.68584
       6 -> 32         0.12230

 Excited State 114:      Singlet-B1G   21.6474 eV   57.27 nm  f=0.0000  <S**2>=0.000
       6 -> 33         0.70677

 Excited State 115:      Singlet-B2U   21.6936 eV   57.15 nm  f=0.1179  <S**2>=0.000
       5 -> 28         0.14620
       5 -> 32        -0.19140
       6 -> 29        -0.27772
       7 -> 31        -0.16619
       7 -> 35         0.56049

 Excited State 116:      Singlet-B1U   21.7977 eV   56.88 nm  f=0.1619  <S**2>=0.000
       4 -> 23        -0.29528
       6 -> 31         0.62792

 Excited State 117:      Singlet-B2G   21.8548 eV   56.73 nm  f=0.0000  <S**2>=0.000
       8 -> 36         0.69375

 Excited State 118:      Singlet-B2U   21.8987 eV   56.62 nm  f=0.0420  <S**2>=0.000
       5 -> 28         0.62924
       5 -> 32         0.20135
       6 -> 29         0.17488
       7 -> 31         0.11175

 Excited State 119:      Singlet-B3G   21.9479 eV   56.49 nm  f=0.0000  <S**2>=0.000
       3 -> 14        -0.36015
       8 -> 37         0.59863

 Excited State 120:      Singlet-AG    22.0099 eV   56.33 nm  f=0.0000  <S**2>=0.000
       3 -> 15        -0.17344
       4 -> 21         0.15385
       4 -> 25        -0.20620
       5 -> 24        -0.17390
       6 -> 32         0.56683
       7 -> 30        -0.13216

 Excited State 121:      Singlet-B3G   22.1097 eV   56.08 nm  f=0.0000  <S**2>=0.000
       3 -> 14         0.59085
       5 -> 31         0.18147
       8 -> 37         0.33410

 Excited State 122:      Singlet-B2G   22.2297 eV   55.77 nm  f=0.0000  <S**2>=0.000
       6 -> 34         0.70615

 Excited State 123:      Singlet-B1U   22.3867 eV   55.38 nm  f=0.0023  <S**2>=0.000
       3 -> 18        -0.10540
       4 -> 23         0.52776
       5 -> 30         0.39644
       6 -> 31         0.19201
       6 -> 35        -0.10664

 Excited State 124:      Singlet-AG    22.6309 eV   54.79 nm  f=0.0000  <S**2>=0.000
       3 -> 15         0.61325
       5 -> 29        -0.30949
       6 -> 32         0.10054

 Excited State 125:      Singlet-AU    22.6314 eV   54.78 nm  f=0.0000  <S**2>=0.000
       8 -> 38         0.70514

 Excited State 126:      Singlet-AG    22.6612 eV   54.71 nm  f=0.0000  <S**2>=0.000
       3 -> 15         0.29477
       5 -> 29         0.61865

 Excited State 127:      Singlet-B3U   22.8203 eV   54.33 nm  f=0.0604  <S**2>=0.000
       3 -> 16         0.58959
       5 -> 33         0.38884

 Excited State 128:      Singlet-B3G   22.8280 eV   54.31 nm  f=0.0000  <S**2>=0.000
       4 -> 24         0.64754
       5 -> 31         0.26331

 Excited State 129:      Singlet-B1U   22.8963 eV   54.15 nm  f=0.1016  <S**2>=0.000
       3 -> 18         0.24299
       4 -> 23        -0.24317
       5 -> 30         0.51711
       6 -> 35         0.30046

 Excited State 130:      Singlet-B1G   23.0110 eV   53.88 nm  f=0.0000  <S**2>=0.000
       3 -> 17         0.70627

 Excited State 131:      Singlet-B3U   23.0872 eV   53.70 nm  f=0.0079  <S**2>=0.000
       3 -> 16        -0.37114
       5 -> 33         0.57025
       7 -> 37         0.13580
       8 -> 39         0.11346

 Excited State 132:      Singlet-B2U   23.2344 eV   53.36 nm  f=0.0118  <S**2>=0.000
       4 -> 27         0.69484
       7 -> 36         0.10067

 Excited State 133:      Singlet-B2G   23.2538 eV   53.32 nm  f=0.0000  <S**2>=0.000
       4 -> 26         0.69568

 Excited State 134:      Singlet-B1U   23.3352 eV   53.13 nm  f=0.0428  <S**2>=0.000
       3 -> 18         0.64184
       4 -> 23         0.11792
       6 -> 35        -0.23872

 Excited State 135:      Singlet-B3G   23.3365 eV   53.13 nm  f=0.0000  <S**2>=0.000
       4 -> 24        -0.24959
       4 -> 29        -0.13673

 The electronic state is 1-AG.
 Alpha  occ. eigenvalues --   -9.92437  -9.92373  -0.67881  -0.51246  -0.41801
 Alpha  occ. eigenvalues --   -0.37238  -0.30946  -0.24306
 Alpha virt. eigenvalues --   -0.03012   0.01843   0.03970   0.06853   0.11069
 Alpha virt. eigenvalues --    0.12738   0.14421   0.15415   0.16299   0.17366
 Alpha virt. eigenvalues --    0.19146   0.23227   0.24051   0.24601   0.29923

 Mulliken charges:
               1
     1  C    0.485355
     2  C    0.485355
     3  H   -0.242677
     4  H   -0.242677
     5  H   -0.242677
     6  H   -0.242677
 Sum of Mulliken charges =   0.00000

 Dipole moment (field-independent basis, Debye):
    X=              0.0000    Y=              0.0000    Z=              0.0000  Tot=              0.0000
 Quadrupole moment (field-independent basis, Debye-Ang):
   XX=            -15.3550   YY=            -12.7285   ZZ=            -12.7442
   XY=             -0.0000   XZ=              0.0000   YZ=             -0.0000

 Normal termination of Gaussian 16 at Mon Mar 21 19:58:36 2022.
