 Gaussian 16, Revision C.01,
 Gaussian 16:  EM64L-G16RevC.01  3-Jul-2019

 --------------------------------------------------------------------
 #P TD(Nstates=10000) blyp/Gen SCF(maxcycles=100) Int(Grid=ultrafine)
 --------------------------------------------------------------------

 ---------------------
 xGDB7_00001_tier4.com
 ---------------------
 Symbolic Z-matrix:
 Charge =  0 Multiplicity = 1

                         Standard orientation:
 ---------------------------------------------------------------------
 Center     Atomic      Atomic             Coordinates (Angstroms)
 Number     Number       Type             X           Y           Z
 ---------------------------------------------------------------------
      1          6           0        0.000000    0.000000   -1.173653
      2          6           0        0.000000    0.000000    0.280989
      3          7           0        0.000000    0.000000    1.427442
      4          1           0        0.000000    1.024088   -1.545371
      5          1           0       -0.886886   -0.512044   -1.545371
      6          1           0        0.886886   -0.512044   -1.545371
 ---------------------------------------------------------------------

 SCF Done:  E(RB-LYP) =  -132.612350307     A.U. after   12 cycles

 Excitation energies and oscillator strengths:

 Excited State   1:      Singlet-E      7.7323 eV  160.35 nm  f=0.0002  <S**2>=0.000
      10 -> 12         0.70637
 This state for optimization and/or second-order correction.
 Total Energy, E(TD-HF/TD-DFT) =  -132.328194273
 Copying the excited state density for this state as the 1-particle RhoCI density.

 Excited State   2:      Singlet-E      7.7323 eV  160.35 nm  f=0.0002  <S**2>=0.000
      11 -> 12         0.70637

 Excited state symmetry could not be determined.
 Excited State   3:      Singlet-?Sym    7.9227 eV  156.49 nm  f=0.0000  <S**2>=0.000
      10 -> 14        -0.50000
      11 -> 13         0.50000

 Excited State   4:      Singlet-A1     8.0210 eV  154.58 nm  f=0.0095  <S**2>=0.000
       9 -> 12         0.70670

 Excited state symmetry could not be determined.
 Excited State   5:      Singlet-?Sym    8.1164 eV  152.76 nm  f=0.0026  <S**2>=0.000
      10 -> 14         0.49912
      11 -> 13         0.49912

 Excited state symmetry could not be determined.
 Excited State   6:      Singlet-?Sym    8.1164 eV  152.76 nm  f=0.0026  <S**2>=0.000
      10 -> 13        -0.49912
      11 -> 14         0.49912

 Excited State   7:      Singlet-E      8.8829 eV  139.58 nm  f=0.0123  <S**2>=0.000
       9 -> 13         0.69484
       9 -> 16        -0.10524

 Excited State   8:      Singlet-E      8.8829 eV  139.58 nm  f=0.0123  <S**2>=0.000
       9 -> 14         0.69484
       9 -> 17        -0.10524

 Excited State   9:      Singlet-E      9.5847 eV  129.36 nm  f=0.0434  <S**2>=0.000
      10 -> 15         0.70604

 Excited State  10:      Singlet-E      9.5848 eV  129.36 nm  f=0.0434  <S**2>=0.000
      11 -> 15         0.70604

 Excited State  11:      Singlet-A1     9.7529 eV  127.12 nm  f=0.2508  <S**2>=0.000
       9 -> 15         0.33355
      10 -> 13         0.28793
      10 -> 16        -0.32892
      11 -> 14         0.28793
      11 -> 17        -0.32893

 Excited State  12:      Singlet-A1     9.9808 eV  124.22 nm  f=0.0304  <S**2>=0.000
       9 -> 15         0.61543
      10 -> 13        -0.10506
      10 -> 16         0.21682
      11 -> 14        -0.10506
      11 -> 17         0.21682

 Excited state symmetry could not be determined.
 Excited State  13:      Singlet-?Sym   10.1944 eV  121.62 nm  f=0.0000  <S**2>=0.000
      10 -> 17        -0.49997
      11 -> 16         0.49998

 Excited state symmetry could not be determined.
 Excited State  14:      Singlet-?Sym   10.2206 eV  121.31 nm  f=0.0040  <S**2>=0.000
      10 -> 17         0.49843
      11 -> 16         0.49843

 Excited state symmetry could not be determined.
 Excited State  15:      Singlet-?Sym   10.2206 eV  121.31 nm  f=0.0040  <S**2>=0.000
      10 -> 16         0.49843
      11 -> 17        -0.49843

 Excited State  16:      Singlet-E     10.6328 eV  116.60 nm  f=0.0055  <S**2>=0.000
       9 -> 17         0.69332

 Excited State  17:      Singlet-E     10.6329 eV  116.60 nm  f=0.0055  <S**2>=0.000
       9 -> 16         0.69332

 Excited state symmetry could not be determined.
 Excited State  18:      Singlet-?Sym   10.9742 eV  112.98 nm  f=0.0000  <S**2>=0.000
      10 -> 19         0.49994
      11 -> 20        -0.49991

 Excited state symmetry could not be determined.
 Excited State  19:      Singlet-?Sym   10.9965 eV  112.75 nm  f=0.0003  <S**2>=0.000
      10 -> 20         0.48389
      11 -> 19         0.48388

 Excited state symmetry could not be determined.
 Excited State  20:      Singlet-?Sym   11.0358 eV  112.35 nm  f=0.0004  <S**2>=0.000
       7 -> 13         0.10162
       8 -> 14        -0.10163
      10 -> 20        -0.46379
      11 -> 18        -0.20608
      11 -> 19         0.46379

 Excited state symmetry could not be determined.
 Excited State  21:      Singlet-?Sym   11.0358 eV  112.35 nm  f=0.0004  <S**2>=0.000
       7 -> 14        -0.10163
       8 -> 13        -0.10162
      10 -> 18         0.20605
      10 -> 19         0.46378
      11 -> 20         0.46381

 Excited State  22:      Singlet-E     11.1108 eV  111.59 nm  f=0.0000  <S**2>=0.000
       7 -> 12        -0.33774
      10 -> 18         0.59003
      10 -> 19        -0.12444
      11 -> 20        -0.12445

 Excited State  23:      Singlet-E     11.1108 eV  111.59 nm  f=0.0000  <S**2>=0.000
       8 -> 12        -0.33774
      10 -> 20        -0.12447
      11 -> 18         0.59002
      11 -> 19         0.12447

 Excited State  24:      Singlet-E     11.2777 eV  109.94 nm  f=0.1323  <S**2>=0.000
       7 -> 12         0.60093
       9 -> 20        -0.13399
      10 -> 18         0.30061

 Excited State  25:      Singlet-E     11.2777 eV  109.94 nm  f=0.1323  <S**2>=0.000
       8 -> 12         0.60093
       9 -> 19        -0.13398
      11 -> 18         0.30062

 Excited state symmetry could not be determined.
 Excited State  26:      Singlet-?Sym   11.3011 eV  109.71 nm  f=0.0000  <S**2>=0.000
       7 -> 14         0.49999
       8 -> 13        -0.49999

 Excited State  27:      Singlet-E     11.3327 eV  109.40 nm  f=0.0093  <S**2>=0.000
       8 -> 12         0.11418
       9 -> 19         0.69048

 Excited State  28:      Singlet-E     11.3327 eV  109.40 nm  f=0.0093  <S**2>=0.000
       7 -> 12         0.11418
       9 -> 20         0.69048

 Excited State  29:      Singlet-A1    11.3391 eV  109.34 nm  f=0.0152  <S**2>=0.000
       7 -> 13         0.13359
       8 -> 14         0.13359
       9 -> 18         0.62567
      10 -> 13         0.11971
      10 -> 16         0.10854
      11 -> 14         0.11971
      11 -> 17         0.10854

 Excited state symmetry could not be determined.
 Excited State  30:      Singlet-?Sym   11.5303 eV  107.53 nm  f=0.0340  <S**2>=0.000
       7 -> 14         0.47739
       8 -> 13         0.47739

 Excited state symmetry could not be determined.
 Excited State  31:      Singlet-?Sym   11.5303 eV  107.53 nm  f=0.0340  <S**2>=0.000
       7 -> 13         0.47739
       8 -> 14        -0.47738

 Excited State  32:      Singlet-A1    11.5695 eV  107.16 nm  f=0.8294  <S**2>=0.000
       7 -> 13        -0.30425
       8 -> 14        -0.30425
       9 -> 18         0.31997
       9 -> 23        -0.11635
      10 -> 13        -0.23092
      10 -> 16        -0.18643
      11 -> 14        -0.23092
      11 -> 17        -0.18643

 Excited State  33:      Singlet-A1    12.4149 eV   99.87 nm  f=0.0945  <S**2>=0.000
       6 -> 12         0.69801

 Excited state symmetry could not be determined.
 Excited State  34:      Singlet-?Sym   12.5992 eV   98.41 nm  f=0.1579  <S**2>=0.000
       6 -> 15         0.11669
       7 -> 13         0.31134
       8 -> 14         0.31134
       9 -> 23        -0.21325
      10 -> 13        -0.19318
      10 -> 16        -0.14596
      10 -> 21         0.21289
      11 -> 14        -0.19318
      11 -> 17        -0.14596
      11 -> 22        -0.21288

 Excited State  35:      Singlet-E     12.9237 eV   95.94 nm  f=0.0035  <S**2>=0.000
       6 -> 14        -0.36064
       8 -> 15         0.59617

 Excited State  36:      Singlet-E     12.9237 eV   95.94 nm  f=0.0035  <S**2>=0.000
       6 -> 13        -0.36065
       7 -> 15         0.59616

 Excited State  37:      Singlet-E     13.0285 eV   95.16 nm  f=0.0196  <S**2>=0.000
       6 -> 14         0.51319
       8 -> 15         0.36969
       9 -> 22        -0.10613
      10 -> 21         0.12381
      11 -> 22         0.12381
      11 -> 23        -0.14205

 Excited State  38:      Singlet-E     13.0285 eV   95.16 nm  f=0.0196  <S**2>=0.000
       6 -> 13         0.51318
       7 -> 15         0.36970
       9 -> 21         0.10613
      10 -> 22        -0.12381
      10 -> 23        -0.14205
      11 -> 21         0.12381

 Excited state symmetry could not be determined.
 Excited State  39:      Singlet-?Sym   13.1396 eV   94.36 nm  f=0.0039  <S**2>=0.000
       6 -> 13        -0.14092
      10 -> 22        -0.48313
      11 -> 21         0.48314

 Excited state symmetry could not be determined.
 Excited State  40:      Singlet-?Sym   13.1396 eV   94.36 nm  f=0.0039  <S**2>=0.000
       6 -> 14        -0.14092
      10 -> 21         0.48313
      11 -> 22         0.48314

 Excited state symmetry could not be determined.
 Excited State  41:      Singlet-?Sym   13.1754 eV   94.10 nm  f=0.0000  <S**2>=0.000
      10 -> 22         0.50000
      11 -> 21         0.49998

 Excited State  42:      Singlet-E     13.5227 eV   91.69 nm  f=0.0295  <S**2>=0.000
       9 -> 22         0.67501
      11 -> 23        -0.17096

 Excited State  43:      Singlet-E     13.5227 eV   91.69 nm  f=0.0295  <S**2>=0.000
       9 -> 21         0.67501
      10 -> 23         0.17096

 Excited state symmetry could not be determined.
 Excited State  44:      Singlet-?Sym   13.5761 eV   91.33 nm  f=0.0000  <S**2>=0.000
       7 -> 17        -0.50000
       8 -> 16         0.50000

 Excited state symmetry could not be determined.
 Excited State  45:      Singlet-?Sym   13.6660 eV   90.72 nm  f=0.0612  <S**2>=0.000
       7 -> 17         0.47179
       8 -> 16         0.47179
      10 -> 23         0.18966

 Excited state symmetry could not be determined.
 Excited State  46:      Singlet-?Sym   13.6660 eV   90.72 nm  f=0.0612  <S**2>=0.000
       7 -> 16         0.47179
       8 -> 17        -0.47179
      11 -> 23         0.18966

 Excited State  47:      Singlet-E     13.7991 eV   89.85 nm  f=0.0111  <S**2>=0.000
       6 -> 14         0.14581
       7 -> 16        -0.10171
       8 -> 17         0.10171
       9 -> 22         0.14443
      11 -> 23         0.61913
      11 -> 24        -0.15011

 Excited State  48:      Singlet-E     13.7991 eV   89.85 nm  f=0.0111  <S**2>=0.000
       6 -> 13         0.14581
       7 -> 17        -0.10172
       8 -> 16        -0.10172
       9 -> 21        -0.14443
      10 -> 23         0.61913
      10 -> 24        -0.15010

 Excited state symmetry could not be determined.
 Excited State  49:      Singlet-?Sym   13.8325 eV   89.63 nm  f=0.0222  <S**2>=0.000
       6 -> 15         0.31738
       7 -> 13         0.10333
       8 -> 14         0.10333
       9 -> 23         0.10846
       9 -> 24        -0.19820
      10 -> 21        -0.36644
      11 -> 22         0.36644

 Excited State  50:      Singlet-E     14.0561 eV   88.21 nm  f=0.0003  <S**2>=0.000
      11 -> 23         0.12166
      11 -> 24         0.67757

 Excited State  51:      Singlet-E     14.0561 eV   88.21 nm  f=0.0003  <S**2>=0.000
      10 -> 23         0.12166
      10 -> 24         0.67757

 Excited State  52:      Singlet-A1    14.1478 eV   87.63 nm  f=0.0010  <S**2>=0.000
       6 -> 15         0.45303
       6 -> 18        -0.16325
       7 -> 16        -0.30823
       8 -> 17        -0.30823
       9 -> 24         0.17600
      10 -> 21         0.10414
      11 -> 22        -0.10415

 Excited state symmetry could not be determined.
 Excited State  53:      Singlet-?Sym   14.3310 eV   86.51 nm  f=0.1098  <S**2>=0.000
       6 -> 15        -0.26309
       7 -> 16        -0.21439
       7 -> 20         0.33566
       8 -> 17        -0.21439
       8 -> 19         0.33566
       9 -> 24        -0.30560

 Excited state symmetry could not be determined.
 Excited State  54:      Singlet-?Sym   14.3439 eV   86.44 nm  f=0.0000  <S**2>=0.000
       7 -> 19         0.49989
       8 -> 20        -0.49988

 Excited State  55:      Singlet-A1    14.3672 eV   86.30 nm  f=0.2068  <S**2>=0.000
       7 -> 20         0.29032
       8 -> 19         0.29032
       9 -> 24         0.54445

 Excited State  56:      Singlet-E     14.4534 eV   85.78 nm  f=0.0088  <S**2>=0.000
       6 -> 16         0.10366
       7 -> 18         0.59541
       7 -> 19        -0.24292
       8 -> 20        -0.24292

 Excited State  57:      Singlet-E     14.4534 eV   85.78 nm  f=0.0088  <S**2>=0.000
       6 -> 17         0.10366
       7 -> 20        -0.24292
       8 -> 18         0.59541
       8 -> 19         0.24292

 Excited State  58:      Singlet-A1    14.7607 eV   84.00 nm  f=0.0013  <S**2>=0.000
       6 -> 18        -0.12602
       9 -> 23         0.55208
      10 -> 25        -0.22253
      10 -> 28        -0.13300
      11 -> 26         0.22252
      11 -> 29         0.13301

 Excited State  59:      Singlet-E     14.8308 eV   83.60 nm  f=0.0825  <S**2>=0.000
       6 -> 16         0.64945
       7 -> 18        -0.20076
       7 -> 19        -0.11712
       8 -> 20        -0.11712

 Excited State  60:      Singlet-E     14.8308 eV   83.60 nm  f=0.0825  <S**2>=0.000
       6 -> 17         0.64945
       7 -> 20        -0.11711
       8 -> 18        -0.20075
       8 -> 19         0.11711

 Excited state symmetry could not be determined.
 Excited State  61:      Singlet-?Sym   14.9738 eV   82.80 nm  f=0.0961  <S**2>=0.000
       6 -> 16         0.22542
       7 -> 18         0.28319
       7 -> 19         0.34225
       8 -> 20         0.34225
      10 -> 26         0.21783
      11 -> 25        -0.21784

 Excited state symmetry could not be determined.
 Excited State  62:      Singlet-?Sym   14.9738 eV   82.80 nm  f=0.0961  <S**2>=0.000
       6 -> 17        -0.22541
       7 -> 20        -0.34225
       8 -> 18        -0.28319
       8 -> 19         0.34225
      10 -> 25         0.21783
      11 -> 26         0.21783

 Excited State  63:      Singlet-A1    15.1886 eV   81.63 nm  f=0.0043  <S**2>=0.000
       6 -> 15         0.30319
       7 -> 16         0.26354
       7 -> 20         0.19939
       8 -> 17         0.26354
       8 -> 19         0.19940
       9 -> 24        -0.16934
       9 -> 27        -0.17663
      10 -> 21         0.13956
      11 -> 22        -0.13956

 Excited state symmetry could not be determined.
 Excited State  64:      Singlet-?Sym   15.2502 eV   81.30 nm  f=0.0000  <S**2>=0.000
      10 -> 26         0.49845
      11 -> 25         0.49845

 Excited state symmetry could not be determined.
 Excited State  65:      Singlet-?Sym   15.4089 eV   80.46 nm  f=0.0000  <S**2>=0.000
       9 -> 23         0.16041
      10 -> 25         0.41138
      10 -> 28        -0.24133
      11 -> 26        -0.41138
      11 -> 29         0.24133

 Excited State  66:      Singlet-E     15.6074 eV   79.44 nm  f=0.0071  <S**2>=0.000
       6 -> 20         0.64401
       9 -> 25        -0.14920
      10 -> 26        -0.15460
      11 -> 25         0.15460

 Excited State  67:      Singlet-E     15.6074 eV   79.44 nm  f=0.0071  <S**2>=0.000
       6 -> 19         0.64402
       9 -> 26         0.14919
      10 -> 25         0.15459
      11 -> 26         0.15459

 Excited State  68:      Singlet-E     15.6558 eV   79.19 nm  f=0.0525  <S**2>=0.000
       6 -> 20         0.22943
       9 -> 25         0.61682
      10 -> 26         0.11019
      10 -> 27        -0.16131
      11 -> 25        -0.11019

 Excited State  69:      Singlet-E     15.6558 eV   79.19 nm  f=0.0525  <S**2>=0.000
       6 -> 19        -0.22941
       9 -> 26         0.61684
      10 -> 25         0.11018
      11 -> 26         0.11018
      11 -> 27         0.16129

 Excited State  70:      Singlet-E     15.7487 eV   78.73 nm  f=0.0864  <S**2>=0.000
       6 -> 20        -0.13523
       9 -> 25         0.30516
      10 -> 26        -0.25226
      10 -> 27         0.43771
      10 -> 29        -0.13169
      11 -> 25         0.25226
      11 -> 28         0.13169

 Excited State  71:      Singlet-E     15.7487 eV   78.73 nm  f=0.0864  <S**2>=0.000
       6 -> 19        -0.13522
       9 -> 26        -0.30514
      10 -> 25         0.25227
      10 -> 28         0.13170
      11 -> 26         0.25228
      11 -> 27         0.43771
      11 -> 29         0.13170

 Excited State  72:      Singlet-E     15.8743 eV   78.10 nm  f=0.1598  <S**2>=0.000
       7 -> 19        -0.10961
       8 -> 20        -0.10962
      10 -> 26         0.21306
      10 -> 27         0.51010
      10 -> 29         0.18689
      11 -> 25        -0.21305
      11 -> 28        -0.18688

 Excited State  73:      Singlet-E     15.8743 eV   78.10 nm  f=0.1598  <S**2>=0.000
       7 -> 20        -0.10961
       8 -> 19         0.10961
      10 -> 25        -0.21305
      10 -> 28        -0.18689
      11 -> 26        -0.21305
      11 -> 27         0.51011
      11 -> 29        -0.18689

 Excited state symmetry could not be determined.
 Excited State  74:      Singlet-?Sym   16.0445 eV   77.27 nm  f=0.0000  <S**2>=0.000
      10 -> 29         0.49849
      11 -> 28         0.49850

 Excited State  75:      Singlet-A1    16.1802 eV   76.63 nm  f=0.0891  <S**2>=0.000
       9 -> 27         0.65936

 Excited State  76:      Singlet-E     16.2274 eV   76.40 nm  f=0.1595  <S**2>=0.000
       9 -> 29         0.13267
      10 -> 25         0.12489
      10 -> 28        -0.33943
      11 -> 26         0.12490
      11 -> 29        -0.33942
      11 -> 30         0.44258

 Excited State  77:      Singlet-E     16.2274 eV   76.40 nm  f=0.1595  <S**2>=0.000
       9 -> 28        -0.13267
      10 -> 26        -0.12489
      10 -> 29         0.33944
      10 -> 30         0.44256
      11 -> 25         0.12489
      11 -> 28        -0.33944

 Excited State  78:      Singlet-E     16.3158 eV   75.99 nm  f=0.0883  <S**2>=0.000
       9 -> 28         0.19415
      10 -> 26         0.10943
      10 -> 29        -0.23181
      10 -> 30         0.53756
      11 -> 25        -0.10944
      11 -> 28         0.23181

 Excited State  79:      Singlet-E     16.3158 eV   75.99 nm  f=0.0883  <S**2>=0.000
       9 -> 29        -0.19415
      10 -> 25        -0.10944
      10 -> 28         0.23183
      11 -> 26        -0.10944
      11 -> 29         0.23182
      11 -> 30         0.53754

 Excited State  80:      Singlet-E     16.4463 eV   75.39 nm  f=0.0079  <S**2>=0.000
       9 -> 29        -0.15429
      10 -> 31         0.67983

 Excited State  81:      Singlet-E     16.4463 eV   75.39 nm  f=0.0079  <S**2>=0.000
       9 -> 28        -0.15426
      11 -> 31         0.67984

 Excited State  82:      Singlet-E     16.4591 eV   75.33 nm  f=0.0080  <S**2>=0.000
       9 -> 28         0.63920
      10 -> 29         0.11569
      11 -> 28        -0.11569
      11 -> 31         0.14314

 Excited State  83:      Singlet-E     16.4591 eV   75.33 nm  f=0.0080  <S**2>=0.000
       9 -> 29         0.63919
      10 -> 28         0.11569
      10 -> 31         0.14318
      11 -> 29         0.11569

 Excited State  84:      Singlet-A1    16.4746 eV   75.26 nm  f=0.1205  <S**2>=0.000
       6 -> 18         0.47240
       6 -> 23        -0.11550
       9 -> 30         0.39216
      10 -> 32         0.15838
      11 -> 33        -0.15837

 Excited state symmetry could not be determined.
 Excited State  85:      Singlet-?Sym   16.5238 eV   75.03 nm  f=0.0050  <S**2>=0.000
       7 -> 21         0.49078
       8 -> 22         0.49078
      10 -> 31         0.10856

 Excited state symmetry could not be determined.
 Excited State  86:      Singlet-?Sym   16.5238 eV   75.03 nm  f=0.0050  <S**2>=0.000
       7 -> 22         0.49078
       8 -> 21        -0.49078
      11 -> 31         0.10855

 Excited state symmetry could not be determined.
 Excited State  87:      Singlet-?Sym   16.5537 eV   74.90 nm  f=0.0000  <S**2>=0.000
       7 -> 22         0.49999
       8 -> 21         0.49999

 Excited State  88:      Singlet-A1    16.6550 eV   74.44 nm  f=0.1230  <S**2>=0.000
       6 -> 18        -0.34409
       6 -> 23         0.12205
       9 -> 30         0.55780

 Excited state symmetry could not be determined.
 Excited State  89:      Singlet-?Sym   16.7405 eV   74.06 nm  f=0.1179  <S**2>=0.000
       7 -> 21         0.45191
       8 -> 22        -0.45191
      10 -> 32        -0.19756
      11 -> 33         0.19757

 Excited State  90:      Singlet-A2    16.7769 eV   73.90 nm  f=0.0000  <S**2>=0.000
       9 -> 31         0.49647
      10 -> 33         0.35590
      11 -> 32         0.35589

 Excited State  91:      Singlet-A2    16.7838 eV   73.87 nm  f=0.0000  <S**2>=0.000
       9 -> 31         0.50347
      10 -> 33        -0.35097
      11 -> 32        -0.35097

 Excited state symmetry could not be determined.
 Excited State  92:      Singlet-?Sym   16.8713 eV   73.49 nm  f=0.0697  <S**2>=0.000
       8 -> 24         0.13689
       9 -> 33         0.14033
      10 -> 32         0.46258
      11 -> 33         0.46258

 Excited state symmetry could not be determined.
 Excited State  93:      Singlet-?Sym   16.8713 eV   73.49 nm  f=0.0697  <S**2>=0.000
       7 -> 24         0.13689
       9 -> 32        -0.14033
      10 -> 33        -0.46258
      11 -> 32         0.46258

 Excited state symmetry could not be determined.
 Excited State  94:      Singlet-?Sym   16.9239 eV   73.26 nm  f=0.0137  <S**2>=0.000
       6 -> 18        -0.13784
       7 -> 21         0.13146
       8 -> 22        -0.13145
       9 -> 27        -0.14833
       9 -> 30        -0.13612
      10 -> 28         0.25176
      10 -> 32         0.28682
      11 -> 29        -0.25176
      11 -> 33        -0.28682

 Excited State  95:      Singlet-E     17.1212 eV   72.42 nm  f=0.0171  <S**2>=0.000
       8 -> 23         0.60433
       9 -> 33        -0.35176

 Excited State  96:      Singlet-E     17.1212 eV   72.42 nm  f=0.0171  <S**2>=0.000
       7 -> 23         0.60433
       9 -> 32         0.35177

 Excited State  97:      Singlet-E     17.1315 eV   72.37 nm  f=0.0586  <S**2>=0.000
       7 -> 23        -0.34165
       7 -> 24         0.15456
       9 -> 32         0.58418

 Excited State  98:      Singlet-E     17.1315 eV   72.37 nm  f=0.0586  <S**2>=0.000
       8 -> 23         0.34165
       8 -> 24        -0.15455
       9 -> 33         0.58418

 Excited State  99:      Singlet-E     17.6190 eV   70.37 nm  f=0.2022  <S**2>=0.000
       7 -> 23         0.10564

 The electronic state is 1-A1.
 Alpha  occ. eigenvalues --  -14.01751  -9.98054  -9.96588  -0.81743  -0.70161
 Alpha  occ. eigenvalues --   -0.46340  -0.41960  -0.41960  -0.30681  -0.29550
 Alpha  occ. eigenvalues --   -0.29550
 Alpha virt. eigenvalues --   -0.01271  -0.00433  -0.00433   0.05607   0.07927
 Alpha virt. eigenvalues --    0.07927   0.10835   0.10918   0.10918   0.18877
 Alpha virt. eigenvalues --    0.18877   0.20788   0.21715   0.26872   0.26872

 Mulliken charges:
               1
     1  C    0.689910
     2  C   -0.415503
     3  N    0.060229
     4  H   -0.111545
     5  H   -0.111545
     6  H   -0.111545
 Sum of Mulliken charges =  -0.00000

 Dipole moment (field-independent basis, Debye):
    X=             -0.0000    Y=              0.0000    Z=             -3.9375  Tot=              3.9375
 Quadrupole moment (field-independent basis, Debye-Ang):
   XX=            -17.7532   YY=            -17.7532   ZZ=            -21.3224
   XY=             -0.0000   XZ=              0.0000   YZ=             -0.0000

 Normal termination of Gaussian 16 at Mon Mar 21 19:56:11 2022.
