 Gaussian 16, Revision C.01,
 Gaussian 16:  EM64L-G16RevC.01  3-Jul-2019

 --------------------------------------------------------------------
 #P TD(Nstates=10000) blyp/Gen SCF(maxcycles=100) Int(Grid=ultrafine)
 --------------------------------------------------------------------

 ---------------------
 xGDB7_00001_tier4.com
 ---------------------
 Symbolic Z-matrix:
 Charge =  0 Multiplicity = 1

                         Standard orientation:
 ---------------------------------------------------------------------
 Center     Atomic      Atomic             Coordinates (Angstroms)
 Number     Number       Type             X           Y           Z
 ---------------------------------------------------------------------
      1          6           0       -1.208422   -0.239069   -0.021917
      2          6           0        0.083893    0.553452    0.046734
      3          8           0        1.233467   -0.256002   -0.105864
      4          1           0       -2.071999    0.425135    0.051700
      5          1           0       -1.270670   -0.957756    0.799731
      6          1           0       -1.270625   -0.788280   -0.962327
      7          1           0        0.130030    1.119197    0.986112
      8          1           0        0.125951    1.277026   -0.768547
      9          1           0        1.236751   -0.913605    0.591341
 ---------------------------------------------------------------------

 SCF Done:  E(RB-LYP) =  -154.869154483     A.U. after   13 cycles

 Excitation energies and oscillator strengths:

 Excited State   1:      Singlet-A      6.1147 eV  202.76 nm  f=0.0142  <S**2>=0.000
      13 -> 14         0.70622
 This state for optimization and/or second-order correction.
 Total Energy, E(TD-HF/TD-DFT) =  -154.644442079
 Copying the excited state density for this state as the 1-particle RhoCI density.

 Excited State   2:      Singlet-A      6.9686 eV  177.92 nm  f=0.0133  <S**2>=0.000
      13 -> 15         0.70299

 Excited State   3:      Singlet-A      7.2721 eV  170.49 nm  f=0.0246  <S**2>=0.000
      13 -> 16         0.70289

 Excited State   4:      Singlet-A      7.5568 eV  164.07 nm  f=0.0172  <S**2>=0.000
      12 -> 14         0.70223

 Excited State   5:      Singlet-A      7.8487 eV  157.97 nm  f=0.0467  <S**2>=0.000
      13 -> 17         0.70333

 Excited State   6:      Singlet-A      8.3957 eV  147.68 nm  f=0.0162  <S**2>=0.000
      12 -> 15         0.70325

 Excited State   7:      Singlet-A      8.4539 eV  146.66 nm  f=0.0209  <S**2>=0.000
      13 -> 18         0.70276

 Excited State   8:      Singlet-A      8.7372 eV  141.90 nm  f=0.0346  <S**2>=0.000
      12 -> 16         0.69819

 Excited State   9:      Singlet-A      8.7843 eV  141.14 nm  f=0.0208  <S**2>=0.000
      11 -> 14        -0.10841
      13 -> 19         0.66892
      13 -> 20         0.17084

 Excited State  10:      Singlet-A      8.8209 eV  140.56 nm  f=0.0214  <S**2>=0.000
      10 -> 14         0.10017
      11 -> 14         0.68740
      13 -> 19         0.11207

 Excited State  11:      Singlet-A      8.9763 eV  138.12 nm  f=0.0008  <S**2>=0.000
      10 -> 14         0.10217
      13 -> 19        -0.15612
      13 -> 20         0.67151

 Excited State  12:      Singlet-A      9.0916 eV  136.37 nm  f=0.0343  <S**2>=0.000
      10 -> 14         0.68616
      11 -> 14        -0.10084

 Excited State  13:      Singlet-A      9.2704 eV  133.74 nm  f=0.0063  <S**2>=0.000
      13 -> 21         0.69611

 Excited State  14:      Singlet-A      9.2940 eV  133.40 nm  f=0.0394  <S**2>=0.000
      12 -> 17         0.69248

 Excited State  15:      Singlet-A      9.5819 eV  129.39 nm  f=0.0102  <S**2>=0.000
      11 -> 15         0.13307
      13 -> 22         0.68079

 Excited State  16:      Singlet-A      9.6588 eV  128.36 nm  f=0.0083  <S**2>=0.000
      11 -> 15         0.68606
      13 -> 22        -0.12993

 Excited State  17:      Singlet-A      9.8721 eV  125.59 nm  f=0.0056  <S**2>=0.000
      10 -> 15        -0.16090
      13 -> 23         0.67624

 Excited State  18:      Singlet-A      9.9067 eV  125.15 nm  f=0.0246  <S**2>=0.000
      10 -> 15         0.10823
      12 -> 18         0.68861

 Excited State  19:      Singlet-A      9.9130 eV  125.07 nm  f=0.0198  <S**2>=0.000
      10 -> 15         0.67113
      13 -> 23         0.16604

 Excited State  20:      Singlet-A     10.0031 eV  123.95 nm  f=0.0519  <S**2>=0.000
      11 -> 16         0.69569

 Excited State  21:      Singlet-A     10.2410 eV  121.07 nm  f=0.0228  <S**2>=0.000
      10 -> 16        -0.25325
      12 -> 19         0.63172
      13 -> 24         0.14271

 Excited State  22:      Singlet-A     10.2734 eV  120.68 nm  f=0.0782  <S**2>=0.000
       9 -> 14        -0.15985
      10 -> 16         0.62161
      12 -> 19         0.22652
      13 -> 24         0.11327

 Excited State  23:      Singlet-A     10.3528 eV  119.76 nm  f=0.0226  <S**2>=0.000
       9 -> 14         0.49008
      13 -> 24         0.48261

 Excited State  24:      Singlet-A     10.3816 eV  119.43 nm  f=0.0394  <S**2>=0.000
       9 -> 14         0.47224
      10 -> 16         0.13906
      12 -> 19         0.13606
      12 -> 20        -0.13430
      13 -> 24        -0.45363

 Excited State  25:      Singlet-A     10.4597 eV  118.54 nm  f=0.0075  <S**2>=0.000
      12 -> 20         0.63479
      13 -> 24        -0.11116
      13 -> 25        -0.21802

 Excited State  26:      Singlet-A     10.5751 eV  117.24 nm  f=0.0817  <S**2>=0.000
      11 -> 17         0.67394

 Excited State  27:      Singlet-A     10.7016 eV  115.86 nm  f=0.0030  <S**2>=0.000
      10 -> 17         0.23447
      12 -> 20         0.12786
      12 -> 21         0.29375
      13 -> 25         0.55994

 Excited State  28:      Singlet-A     10.7962 eV  114.84 nm  f=0.0238  <S**2>=0.000
      10 -> 17        -0.46730
      12 -> 21         0.50643

 Excited State  29:      Singlet-A     10.8245 eV  114.54 nm  f=0.0287  <S**2>=0.000
       8 -> 14        -0.10737
      10 -> 17         0.46059
      12 -> 20        -0.10290
      12 -> 21         0.35039
      12 -> 22        -0.13314
      13 -> 25        -0.29784

 Excited State  30:      Singlet-A     10.9650 eV  113.07 nm  f=0.0266  <S**2>=0.000
       8 -> 14         0.62886
      12 -> 22        -0.29355

 Excited State  31:      Singlet-A     11.0208 eV  112.50 nm  f=0.0255  <S**2>=0.000
       8 -> 14         0.25902
      12 -> 22         0.61191
      13 -> 25        -0.11817

 Excited State  32:      Singlet-A     11.1841 eV  110.86 nm  f=0.0047  <S**2>=0.000
       9 -> 15         0.52820
      11 -> 18         0.44024

 Excited State  33:      Singlet-A     11.2488 eV  110.22 nm  f=0.0565  <S**2>=0.000
       9 -> 15        -0.42418
      10 -> 18         0.17985
      11 -> 18         0.49441
      12 -> 23         0.10940

 Excited State  34:      Singlet-A     11.3046 eV  109.68 nm  f=0.0130  <S**2>=0.000
      12 -> 23         0.13095
      13 -> 26         0.65420
      13 -> 27         0.10522

 Excited State  35:      Singlet-A     11.3392 eV  109.34 nm  f=0.0045  <S**2>=0.000
      11 -> 18        -0.11893
      12 -> 23         0.64954
      13 -> 26        -0.10548
      13 -> 27        -0.20021

 Excited State  36:      Singlet-A     11.3423 eV  109.31 nm  f=0.0212  <S**2>=0.000
      12 -> 23         0.17231
      13 -> 26        -0.14322
      13 -> 27         0.65152

 Excited State  37:      Singlet-A     11.4758 eV  108.04 nm  f=0.0057  <S**2>=0.000
      11 -> 19         0.67121

 Excited State  38:      Singlet-A     11.5258 eV  107.57 nm  f=0.0115  <S**2>=0.000
       9 -> 16         0.38560
      10 -> 18         0.51133
      11 -> 19         0.14593

 Excited State  39:      Singlet-A     11.5477 eV  107.37 nm  f=0.0863  <S**2>=0.000
       9 -> 16         0.55753
      10 -> 18        -0.37441

 Excited State  40:      Singlet-A     11.6989 eV  105.98 nm  f=0.0062  <S**2>=0.000
      10 -> 19         0.37590
      11 -> 20         0.56466

 Excited State  41:      Singlet-A     11.7457 eV  105.56 nm  f=0.0030  <S**2>=0.000
       8 -> 15        -0.12457
      10 -> 19         0.55290
      10 -> 20         0.11695
      11 -> 20        -0.33168
      13 -> 28        -0.17390

 Excited State  42:      Singlet-A     11.7768 eV  105.28 nm  f=0.0161  <S**2>=0.000
       8 -> 15         0.34718
      10 -> 19         0.17015
      11 -> 20        -0.10319
      12 -> 24         0.14734
      13 -> 28         0.53977

 Excited State  43:      Singlet-A     11.7945 eV  105.12 nm  f=0.0689  <S**2>=0.000
       8 -> 15         0.54533
      12 -> 24         0.13788
      13 -> 28        -0.40041

 Excited State  44:      Singlet-A     11.8882 eV  104.29 nm  f=0.0620  <S**2>=0.000
       8 -> 15        -0.18373
      12 -> 24         0.64098

 Excited State  45:      Singlet-A     11.9623 eV  103.65 nm  f=0.0181  <S**2>=0.000
       7 -> 14         0.10595
       9 -> 17        -0.12018
      10 -> 20         0.58224
      11 -> 21        -0.29125

 Excited State  46:      Singlet-A     12.0366 eV  103.01 nm  f=0.0032  <S**2>=0.000
       9 -> 17         0.48829
      11 -> 21        -0.39298
      12 -> 25        -0.28718

 Excited State  47:      Singlet-A     12.0995 eV  102.47 nm  f=0.0214  <S**2>=0.000
       8 -> 16         0.40666
       9 -> 17        -0.20396
      10 -> 20        -0.21836
      10 -> 22         0.10751
      11 -> 21        -0.33459
      11 -> 22         0.15441
      12 -> 25         0.26873

 Excited State  48:      Singlet-A     12.1508 eV  102.04 nm  f=0.0034  <S**2>=0.000
       7 -> 14        -0.10554
       8 -> 16         0.49249
       9 -> 17         0.25540
      10 -> 20         0.11475
      10 -> 21         0.14259
      11 -> 21         0.21118
      11 -> 22        -0.26595

 Excited State  49:      Singlet-A     12.1639 eV  101.93 nm  f=0.0365  <S**2>=0.000
       7 -> 14         0.10090
       8 -> 16        -0.23091
       9 -> 17         0.30445
      10 -> 21         0.10525
      12 -> 25         0.53407

 Excited State  50:      Singlet-A     12.2431 eV  101.27 nm  f=0.0203  <S**2>=0.000
      10 -> 21         0.58747
      11 -> 22         0.36092

 Excited State  51:      Singlet-A     12.2889 eV  100.89 nm  f=0.0404  <S**2>=0.000
       7 -> 14        -0.40091
      10 -> 21        -0.27614
      10 -> 22        -0.10611
      11 -> 22         0.42103

 Excited State  52:      Singlet-A     12.3259 eV  100.59 nm  f=0.0362  <S**2>=0.000
       7 -> 14         0.49380
       8 -> 16         0.11982
       8 -> 17        -0.14151
       9 -> 17         0.12049
      10 -> 21        -0.15271
      10 -> 22        -0.24525
      11 -> 21         0.12488
      11 -> 22         0.26098

 Excited State  53:      Singlet-A     12.5676 eV   98.65 nm  f=0.0177  <S**2>=0.000
       8 -> 17        -0.30386
       9 -> 18        -0.21451
      10 -> 22         0.54445
      11 -> 23         0.15870

 Excited State  54:      Singlet-A     12.6157 eV   98.28 nm  f=0.0281  <S**2>=0.000
      11 -> 23         0.14234
      13 -> 29         0.65004
      13 -> 30         0.13152

 Excited State  55:      Singlet-A     12.6610 eV   97.93 nm  f=0.0158  <S**2>=0.000
      10 -> 22        -0.12550
      10 -> 23         0.17877
      11 -> 23         0.61111
      12 -> 26         0.11640
      13 -> 29        -0.11976

 Excited State  56:      Singlet-A     12.7364 eV   97.35 nm  f=0.0354  <S**2>=0.000
       8 -> 17        -0.44844
       9 -> 18         0.48560
      10 -> 23        -0.13635

 Excited State  57:      Singlet-A     12.7862 eV   96.97 nm  f=0.0076  <S**2>=0.000
       7 -> 15        -0.13741
       8 -> 17        -0.10906
       9 -> 18        -0.19685
      11 -> 23        -0.11943
      12 -> 26         0.54028
      12 -> 27        -0.27130
      13 -> 30         0.10481

 Excited State  58:      Singlet-A     12.8207 eV   96.71 nm  f=0.0154  <S**2>=0.000
       7 -> 15        -0.11186
       9 -> 18        -0.12987
      12 -> 26         0.19477
      12 -> 27         0.60783
      13 -> 29        -0.11500

 Excited State  59:      Singlet-A     12.9189 eV   95.97 nm  f=0.0291  <S**2>=0.000
       9 -> 18         0.16916
       9 -> 19        -0.26027
      10 -> 23         0.47552
      11 -> 23        -0.12648
      13 -> 30         0.28940

 Excited State  60:      Singlet-A     12.9790 eV   95.53 nm  f=0.0246  <S**2>=0.000
       7 -> 16         0.12039
       8 -> 17        -0.26968
       8 -> 18        -0.10730
       9 -> 18        -0.17377
       9 -> 19         0.29811
       9 -> 20        -0.13598
      10 -> 22        -0.13416
      10 -> 23         0.27607
      11 -> 24         0.19392
      12 -> 26        -0.22578
      13 -> 30         0.16521

 Excited State  61:      Singlet-A     13.0133 eV   95.28 nm  f=0.0029  <S**2>=0.000
       7 -> 15         0.44695
      10 -> 23        -0.17590
      13 -> 29        -0.10028
      13 -> 30         0.47862

 Excited State  62:      Singlet-A     13.0882 eV   94.73 nm  f=0.0659  <S**2>=0.000
       7 -> 15         0.42831
       9 -> 19         0.19726
       9 -> 20        -0.15833
      10 -> 23         0.21852
      11 -> 24        -0.20345
      12 -> 26         0.15815
      13 -> 30        -0.29085

 Excited State  63:      Singlet-A     13.1650 eV   94.18 nm  f=0.0020  <S**2>=0.000
       7 -> 16        -0.14034
       8 -> 17         0.10863
       8 -> 18         0.18584
       9 -> 19         0.38888
       9 -> 20         0.38564
      11 -> 24         0.18947
      13 -> 31        -0.11662

 Excited State  64:      Singlet-A     13.1719 eV   94.13 nm  f=0.0354  <S**2>=0.000
       7 -> 15         0.12624
       9 -> 19        -0.15745
      11 -> 24         0.48270
      11 -> 25        -0.21399
      12 -> 28        -0.32132
      13 -> 30        -0.12795

 Excited State  65:      Singlet-A     13.2373 eV   93.66 nm  f=0.0292  <S**2>=0.000
       7 -> 15         0.11703
       7 -> 16         0.12802
       8 -> 18        -0.29226
       9 -> 19        -0.13450
       9 -> 20         0.50063
      10 -> 24        -0.13443
      11 -> 25         0.17289

 Excited State  66:      Singlet-A     13.3137 eV   93.13 nm  f=0.0134  <S**2>=0.000
       8 -> 18        -0.33654
      10 -> 24        -0.23216
      11 -> 25        -0.27941
      12 -> 28         0.45111

 Excited State  67:      Singlet-A     13.3590 eV   92.81 nm  f=0.0071  <S**2>=0.000
       7 -> 16         0.47217
       8 -> 18         0.31582
      11 -> 25        -0.34797

 Excited State  68:      Singlet-A     13.4555 eV   92.14 nm  f=0.0878  <S**2>=0.000
       7 -> 16         0.25101
       8 -> 18         0.10723
       8 -> 20        -0.13031
       9 -> 21        -0.16548
      10 -> 24         0.17498
      11 -> 24         0.24601
      11 -> 25         0.33105
      12 -> 26         0.10577
      12 -> 28         0.28531

 Excited State  69:      Singlet-A     13.5109 eV   91.77 nm  f=0.0222  <S**2>=0.000
       7 -> 16         0.25402
       8 -> 18        -0.13583
       9 -> 21         0.52555
      10 -> 24        -0.11638
      11 -> 25         0.17844
      12 -> 28        -0.14636

 Excited State  70:      Singlet-A     13.5486 eV   91.51 nm  f=0.0360  <S**2>=0.000
       8 -> 18        -0.16793
       8 -> 20         0.15898
       9 -> 22         0.10028
      10 -> 24         0.43517
      10 -> 25         0.31387
      11 -> 25        -0.18623
      11 -> 27        -0.11623
      13 -> 31         0.21832

 Excited State  71:      Singlet-A     13.5921 eV   91.22 nm  f=0.0059  <S**2>=0.000
       7 -> 16         0.14730
       7 -> 17         0.10833
       8 -> 18        -0.11941
       8 -> 19         0.44169
       9 -> 21        -0.21721
      10 -> 25         0.19571
      13 -> 31        -0.33638

 Excited State  72:      Singlet-A     13.6751 eV   90.66 nm  f=0.0603  <S**2>=0.000
       7 -> 16        -0.16191
       7 -> 17        -0.22457
       8 -> 19         0.24741
       9 -> 19        -0.14196
       9 -> 21         0.29340
       9 -> 22         0.19799
      10 -> 24         0.17920
      12 -> 28         0.10199
      13 -> 31        -0.22648

 Excited State  73:      Singlet-A     13.6929 eV   90.55 nm  f=0.0371  <S**2>=0.000
       7 -> 16        -0.10091
       8 -> 18         0.14139
       8 -> 19         0.18213
       9 -> 22        -0.22964
      10 -> 24        -0.19113
      10 -> 25         0.45617
      11 -> 27         0.13200
      12 -> 28         0.11494
      13 -> 31         0.18242

 Excited State  74:      Singlet-A     13.7545 eV   90.14 nm  f=0.0336  <S**2>=0.000
       7 -> 17         0.17765
       8 -> 19         0.31158
       8 -> 20        -0.22507
       9 -> 22         0.26075
      10 -> 25        -0.12276
      11 -> 26        -0.10945
      13 -> 31         0.39994

 Excited State  75:      Singlet-A     13.8371 eV   89.60 nm  f=0.0583  <S**2>=0.000
       7 -> 17         0.15825
       8 -> 19         0.12725
       8 -> 20         0.40013
       9 -> 22        -0.18629
       9 -> 23         0.11366
      10 -> 25        -0.22208
      13 -> 32         0.36494

 Excited State  76:      Singlet-A     13.8529 eV   89.50 nm  f=0.0379  <S**2>=0.000
       8 -> 19        -0.14812
       8 -> 20         0.11049
       9 -> 22         0.45957
       9 -> 23        -0.10386
      10 -> 25         0.13636
      11 -> 27         0.15251
      13 -> 32         0.38852

 Excited State  77:      Singlet-A     13.9231 eV   89.05 nm  f=0.0629  <S**2>=0.000
       8 -> 20        -0.37840
       9 -> 22        -0.20603
       9 -> 23        -0.10837
      11 -> 27        -0.25426
      13 -> 32         0.41235

 Excited State  78:      Singlet-A     13.9917 eV   88.61 nm  f=0.0056  <S**2>=0.000
       7 -> 17        -0.33995
      11 -> 26         0.51483
      12 -> 29         0.21865
      12 -> 30         0.11357

 Excited State  79:      Singlet-A     14.0311 eV   88.36 nm  f=0.0088  <S**2>=0.000
       7 -> 17        -0.17070
       8 -> 21         0.15710
      11 -> 26        -0.35629
      11 -> 27         0.17020
      12 -> 29         0.51160

 Excited State  80:      Singlet-A     14.1209 eV   87.80 nm  f=0.0153  <S**2>=0.000
       7 -> 17         0.37476
       8 -> 21        -0.16365
       9 -> 23        -0.24299
      10 -> 26        -0.13639
      11 -> 26         0.18169
      11 -> 27         0.21129
      12 -> 29         0.28700

 Excited State  81:      Singlet-A     14.1547 eV   87.59 nm  f=0.1034  <S**2>=0.000
       8 -> 21        -0.22083
       8 -> 22         0.11410
       9 -> 22        -0.10107
      10 -> 24         0.10573
      10 -> 26         0.26192
      11 -> 27         0.43689
      12 -> 29        -0.16618
      13 -> 33        -0.19756

 Excited State  82:      Singlet-A     14.2028 eV   87.30 nm  f=0.0351  <S**2>=0.000
       8 -> 21        -0.38063
       9 -> 23         0.41297
      10 -> 26        -0.22567
      10 -> 27        -0.19546
      13 -> 33         0.20561
      13 -> 34         0.10343

 Excited State  83:      Singlet-A     14.2666 eV   86.91 nm  f=0.0380  <S**2>=0.000
       7 -> 17         0.14384
       8 -> 21         0.39840
       9 -> 23         0.24954
      10 -> 27        -0.34384
      11 -> 27         0.17591

 Excited State  84:      Singlet-A     14.2934 eV   86.74 nm  f=0.0121  <S**2>=0.000
       8 -> 22         0.18702
      10 -> 26         0.16722
      10 -> 27         0.34848
      13 -> 33         0.50842

 Excited State  85:      Singlet-A     14.3442 eV   86.44 nm  f=0.0445  <S**2>=0.000
       7 -> 18         0.11677
       8 -> 22        -0.32759
      10 -> 26         0.48477
      11 -> 27        -0.13792
      11 -> 28         0.15914

 Excited State  86:      Singlet-A     14.3929 eV   86.14 nm  f=0.0041  <S**2>=0.000
      12 -> 30         0.45406
      13 -> 34         0.50577

 Excited State  87:      Singlet-A     14.4246 eV   85.95 nm  f=0.0696  <S**2>=0.000
       7 -> 18         0.27387
       8 -> 22         0.46112
      10 -> 26         0.12081
      10 -> 27        -0.25760
      11 -> 28         0.19124
      12 -> 30         0.18612
      13 -> 34        -0.12972

 Excited State  88:      Singlet-A     14.4671 eV   85.70 nm  f=0.0451  <S**2>=0.000
       8 -> 22         0.21681
       9 -> 24         0.10485
       9 -> 25        -0.11183
      10 -> 26         0.10184
      10 -> 27        -0.12490
      11 -> 28        -0.27601
      12 -> 30        -0.34099
      13 -> 34         0.38959

 Excited State  89:      Singlet-A     14.5205 eV   85.39 nm  f=0.1765  <S**2>=0.000
       7 -> 17         0.11224
       7 -> 18        -0.26965
       8 -> 22         0.21983
       9 -> 23         0.21785
       9 -> 24         0.18135
      10 -> 27         0.17682
      13 -> 33        -0.23385
      13 -> 34        -0.11750
      13 -> 35         0.28276

 Excited State  90:      Singlet-A     14.5823 eV   85.02 nm  f=0.0659  <S**2>=0.000
       7 -> 18         0.44505
       7 -> 19         0.11417
       9 -> 24         0.19019
      10 -> 27         0.13007
      10 -> 28         0.11628
      11 -> 28        -0.39383
      12 -> 30         0.13202

 Excited State  91:      Singlet-A     14.6309 eV   84.74 nm  f=0.0165  <S**2>=0.000
       7 -> 18        -0.16973
       9 -> 24         0.48152
       9 -> 25         0.10794
      13 -> 35        -0.44724

 Excited State  92:      Singlet-A     14.6917 eV   84.39 nm  f=0.0657  <S**2>=0.000
       7 -> 18         0.10972
       7 -> 19        -0.14116
       8 -> 23        -0.10394
       9 -> 24         0.32304
      10 -> 28         0.35429
      11 -> 28         0.24497
      12 -> 30        -0.13217
      13 -> 35         0.28977
      13 -> 36        -0.10150

 Excited State  93:      Singlet-A     14.7585 eV   84.01 nm  f=0.0213  <S**2>=0.000
       8 -> 23         0.40024
       9 -> 24        -0.18485
      10 -> 28         0.48604
      13 -> 35        -0.14794

 Excited State  94:      Singlet-A     14.7864 eV   83.85 nm  f=0.1054  <S**2>=0.000
       7 -> 18        -0.15145
       7 -> 19         0.20728
       7 -> 20         0.11289
       8 -> 23         0.30371
       9 -> 23        -0.17731
       9 -> 24         0.14265
       9 -> 25        -0.15285
      10 -> 27        -0.17080
      11 -> 28        -0.10546
      12 -> 30         0.10174
      13 -> 33         0.17109
      13 -> 35         0.28063

 The electronic state is 1-A.
 Alpha  occ. eigenvalues --  -18.79054  -9.96937  -9.91971  -0.92160  -0.66870
 Alpha  occ. eigenvalues --   -0.55886  -0.45222  -0.40616  -0.38440  -0.33731
 Alpha  occ. eigenvalues --   -0.32776  -0.28169  -0.22856
 Alpha virt. eigenvalues --   -0.00668   0.02438   0.03761   0.05762   0.08120
 Alpha virt. eigenvalues --    0.09233   0.09858   0.11170   0.12192   0.13408
 Alpha virt. eigenvalues --    0.15114   0.16097   0.18589   0.18763   0.20365

 Mulliken charges:
               1
     1  C    0.715870
     2  C    0.473146
     3  O   -0.312461
     4  H   -0.124477
     5  H   -0.160511
     6  H   -0.138452
     7  H   -0.245734
     8  H   -0.341993
     9  H    0.134612
 Sum of Mulliken charges =  -0.00000

 Dipole moment (field-independent basis, Debye):
    X=             -1.2649    Y=             -0.1512    Z=              1.1033  Tot=              1.6852
 Quadrupole moment (field-independent basis, Debye-Ang):
   XX=            -22.9842   YY=            -19.2500   ZZ=            -19.8183
   XY=             -0.9494   XZ=              1.6932   YZ=             -1.4629

 Normal termination of Gaussian 16 at Mon Mar 21 20:01:34 2022.
