 Gaussian 16, Revision C.01,
 Gaussian 16:  EM64L-G16RevC.01  3-Jul-2019

 --------------------------------------------------------------------
 #P TD(Nstates=10000) blyp/Gen SCF(maxcycles=100) Int(Grid=ultrafine)
 --------------------------------------------------------------------

 ---------------------
 xGDB7_00001_tier4.com
 ---------------------
 Symbolic Z-matrix:
 Charge =  0 Multiplicity = 1

                         Standard orientation:
 ---------------------------------------------------------------------
 Center     Atomic      Atomic             Coordinates (Angstroms)
 Number     Number       Type             X           Y           Z
 ---------------------------------------------------------------------
      1          6           0       -0.026655   -0.220923    1.206915
      2          7           0       -0.026655    0.579675   -0.000000
      3          6           0       -0.026655   -0.220923   -1.206915
      4          1           0        0.028929    0.427196    2.082330
      5          1           0        0.800836   -0.947383    1.258571
      6          1           0       -0.961718   -0.783094    1.269367
      7          1           0        0.770359    1.199905   -0.000000
      8          1           0       -0.961718   -0.783094   -1.269367
      9          1           0        0.800836   -0.947383   -1.258571
     10          1           0        0.028929    0.427196   -2.082330
 ---------------------------------------------------------------------

 SCF Done:  E(RB-LYP) =  -134.994786778     A.U. after   12 cycles

 Excitation energies and oscillator strengths:

 Excited State   1:      Singlet-A'     5.0128 eV  247.33 nm  f=0.0063  <S**2>=0.000
      13 -> 14         0.70644
 This state for optimization and/or second-order correction.
 Total Energy, E(TD-HF/TD-DFT) =  -134.810569287
 Copying the excited state density for this state as the 1-particle RhoCI density.

 Excited State   2:      Singlet-A"     5.8337 eV  212.53 nm  f=0.0048  <S**2>=0.000
      13 -> 15         0.70679

 Excited State   3:      Singlet-A'     6.0675 eV  204.34 nm  f=0.0285  <S**2>=0.000
      13 -> 16         0.70531

 Excited State   4:      Singlet-A'     6.9336 eV  178.82 nm  f=0.0158  <S**2>=0.000
      13 -> 17         0.62020
      13 -> 18        -0.33660

 Excited State   5:      Singlet-A'     7.0244 eV  176.50 nm  f=0.0849  <S**2>=0.000
      13 -> 17         0.33390
      13 -> 18         0.61924

 Excited State   6:      Singlet-A"     7.6770 eV  161.50 nm  f=0.0168  <S**2>=0.000
      13 -> 19         0.70342

 Excited State   7:      Singlet-A'     7.8123 eV  158.70 nm  f=0.0046  <S**2>=0.000
      13 -> 20         0.69937

 Excited State   8:      Singlet-A"     8.1255 eV  152.59 nm  f=0.0725  <S**2>=0.000
      13 -> 21         0.70019

 Excited State   9:      Singlet-A'     8.2268 eV  150.71 nm  f=0.0059  <S**2>=0.000
      13 -> 22         0.69935

 Excited State  10:      Singlet-A"     8.7674 eV  141.41 nm  f=0.0005  <S**2>=0.000
      12 -> 14        -0.20331
      13 -> 23         0.67366

 Excited State  11:      Singlet-A"     8.7995 eV  140.90 nm  f=0.0519  <S**2>=0.000
      12 -> 14         0.67489
      13 -> 23         0.19918

 Excited State  12:      Singlet-A'     8.8811 eV  139.61 nm  f=0.0097  <S**2>=0.000
      11 -> 14         0.68449
      13 -> 24        -0.17073

 Excited State  13:      Singlet-A'     9.0717 eV  136.67 nm  f=0.0049  <S**2>=0.000
      11 -> 14         0.16437
      13 -> 24         0.67796

 Excited State  14:      Singlet-A"     9.2835 eV  133.55 nm  f=0.0099  <S**2>=0.000
      10 -> 14         0.10437
      13 -> 25         0.69417

 Excited State  15:      Singlet-A"     9.3444 eV  132.68 nm  f=0.0063  <S**2>=0.000
      10 -> 14         0.69753
      13 -> 25        -0.10473

 Excited State  16:      Singlet-A'     9.6902 eV  127.95 nm  f=0.0175  <S**2>=0.000
      12 -> 15         0.70024

 Excited State  17:      Singlet-A"     9.7040 eV  127.77 nm  f=0.0027  <S**2>=0.000
      11 -> 15         0.70064

 Excited State  18:      Singlet-A"     9.7969 eV  126.55 nm  f=0.0064  <S**2>=0.000
      12 -> 16         0.69719

 Excited State  19:      Singlet-A"     9.8918 eV  125.34 nm  f=0.0235  <S**2>=0.000
      13 -> 26         0.69349

 Excited State  20:      Singlet-A'     9.9284 eV  124.88 nm  f=0.1061  <S**2>=0.000
      11 -> 16         0.69626

 Excited State  21:      Singlet-A'    10.2159 eV  121.36 nm  f=0.0623  <S**2>=0.000
      10 -> 15         0.69572

 Excited State  22:      Singlet-A"    10.3509 eV  119.78 nm  f=0.0007  <S**2>=0.000
      10 -> 16         0.70342

 Excited State  23:      Singlet-A'    10.5744 eV  117.25 nm  f=0.0087  <S**2>=0.000
      13 -> 27         0.67111

 Excited State  24:      Singlet-A"    10.6944 eV  115.93 nm  f=0.0069  <S**2>=0.000
       9 -> 14        -0.26643
      12 -> 17         0.52917
      12 -> 18         0.38235

 Excited State  25:      Singlet-A'    10.7490 eV  115.34 nm  f=0.0187  <S**2>=0.000
      11 -> 17         0.69560
      11 -> 18         0.10048

 Excited State  26:      Singlet-A"    10.7803 eV  115.01 nm  f=0.0125  <S**2>=0.000
       9 -> 14         0.59396
      10 -> 17         0.10378
      12 -> 17         0.33631

 Excited State  27:      Singlet-A'    10.7942 eV  114.86 nm  f=0.0566  <S**2>=0.000
       8 -> 14         0.67601
      11 -> 18        -0.16091

 Excited State  28:      Singlet-A"    10.8302 eV  114.48 nm  f=0.1757  <S**2>=0.000
       9 -> 14         0.23339
      12 -> 17        -0.29831
      12 -> 18         0.58225

 Excited State  29:      Singlet-A'    10.9701 eV  113.02 nm  f=0.0600  <S**2>=0.000
       8 -> 14         0.15329
      11 -> 18         0.64903
      13 -> 28        -0.12594

 Excited State  30:      Singlet-A'    11.1512 eV  111.18 nm  f=0.0157  <S**2>=0.000
       9 -> 15        -0.12418
      11 -> 18         0.11036
      13 -> 28         0.66786

 Excited State  31:      Singlet-A"    11.1882 eV  110.82 nm  f=0.0146  <S**2>=0.000
      10 -> 17         0.18974
      13 -> 29         0.67063

 Excited State  32:      Singlet-A"    11.3103 eV  109.62 nm  f=0.0110  <S**2>=0.000
      10 -> 17         0.57581
      10 -> 18        -0.36065
      13 -> 29        -0.12799

 Excited State  33:      Singlet-A"    11.4370 eV  108.41 nm  f=0.0249  <S**2>=0.000
      10 -> 17         0.24810
      10 -> 18         0.51753
      11 -> 19         0.34279
      13 -> 29        -0.11512

 Excited State  34:      Singlet-A"    11.5501 eV  107.35 nm  f=0.0072  <S**2>=0.000
       8 -> 15        -0.25528
       9 -> 16         0.16777
      10 -> 17        -0.19177
      10 -> 18        -0.19979
      11 -> 19         0.47361
      12 -> 20        -0.28371

 Excited State  35:      Singlet-A'    11.5784 eV  107.08 nm  f=0.0295  <S**2>=0.000
       8 -> 16         0.10019
       9 -> 15         0.13992
      11 -> 20        -0.23241
      12 -> 19         0.61206

 Excited State  36:      Singlet-A'    11.5975 eV  106.91 nm  f=0.0499  <S**2>=0.000
       9 -> 15         0.65074
      11 -> 20         0.19989

 Excited State  37:      Singlet-A"    11.6119 eV  106.77 nm  f=0.0002  <S**2>=0.000
       8 -> 15        -0.30401
      11 -> 19         0.16183
      12 -> 20         0.60048

 Excited State  38:      Singlet-A"    11.6348 eV  106.56 nm  f=0.0272  <S**2>=0.000
       8 -> 15         0.57873
       9 -> 16         0.12160
      11 -> 19         0.28512
      12 -> 20         0.18141

 Excited State  39:      Singlet-A'    11.6367 eV  106.55 nm  f=0.0023  <S**2>=0.000
       7 -> 14         0.10624
       8 -> 16         0.11539
       9 -> 15        -0.13865
      11 -> 20         0.58645
      12 -> 19         0.22530
      13 -> 30         0.20659

 Excited State  40:      Singlet-A'    11.7500 eV  105.52 nm  f=0.0045  <S**2>=0.000
       8 -> 16         0.62721
      11 -> 20        -0.13290
      12 -> 19        -0.12645
      13 -> 30         0.22847

 Excited State  41:      Singlet-A"    11.7659 eV  105.38 nm  f=0.0559  <S**2>=0.000
       9 -> 16         0.64606
      11 -> 19        -0.15093
      11 -> 21        -0.20211

 Excited State  42:      Singlet-A'    11.7963 eV  105.10 nm  f=0.1042  <S**2>=0.000
       8 -> 16        -0.25500
      11 -> 20        -0.13141
      13 -> 30         0.60071
      13 -> 31        -0.11181

 Excited State  43:      Singlet-A'    11.8454 eV  104.67 nm  f=0.0017  <S**2>=0.000
      10 -> 19         0.11666
      12 -> 21         0.68294

 Excited State  44:      Singlet-A"    11.9340 eV  103.89 nm  f=0.0197  <S**2>=0.000
       9 -> 16         0.12321
      11 -> 21         0.51139
      12 -> 22        -0.46184

 Excited State  45:      Singlet-A"    12.0105 eV  103.23 nm  f=0.0579  <S**2>=0.000
      10 -> 20         0.49755
      11 -> 21         0.29568
      12 -> 22         0.37961

 Excited State  46:      Singlet-A'    12.0433 eV  102.95 nm  f=0.0472  <S**2>=0.000
      10 -> 19         0.68271

 Excited State  47:      Singlet-A'    12.0578 eV  102.82 nm  f=0.0328  <S**2>=0.000
       7 -> 14        -0.28252
      11 -> 22         0.62575

 Excited State  48:      Singlet-A'    12.1370 eV  102.15 nm  f=0.0399  <S**2>=0.000
       7 -> 14         0.59790
       8 -> 17        -0.10658
      10 -> 21        -0.13794
      11 -> 22         0.27013

 Excited State  49:      Singlet-A"    12.1575 eV  101.98 nm  f=0.0123  <S**2>=0.000
      10 -> 18        -0.12328
      10 -> 20         0.48497
      11 -> 21        -0.27612
      11 -> 23         0.13137
      12 -> 22        -0.34855

 Excited State  50:      Singlet-A'    12.4405 eV   99.66 nm  f=0.0362  <S**2>=0.000
       8 -> 17        -0.12165
      10 -> 21         0.15822
      12 -> 23        -0.17653
      13 -> 31         0.59726
      13 -> 33         0.18226

 Excited State  51:      Singlet-A'    12.5115 eV   99.10 nm  f=0.0555  <S**2>=0.000
       8 -> 17        -0.23571
      10 -> 21         0.43000
      12 -> 23        -0.39288
      13 -> 31        -0.26025

 Excited State  52:      Singlet-A"    12.5590 eV   98.72 nm  f=0.0070  <S**2>=0.000
       9 -> 18         0.10907
      10 -> 22         0.62267
      11 -> 23         0.27772

 Excited State  53:      Singlet-A"    12.6089 eV   98.33 nm  f=0.0002  <S**2>=0.000
       9 -> 17         0.57697
       9 -> 18         0.13015
      11 -> 23         0.11641
      13 -> 32         0.35619

 Excited State  54:      Singlet-A'    12.6117 eV   98.31 nm  f=0.0585  <S**2>=0.000
       8 -> 17        -0.29665
       8 -> 18        -0.16992
      10 -> 21         0.27097
      12 -> 23         0.51426

 Excited State  55:      Singlet-A"    12.6193 eV   98.25 nm  f=0.0001  <S**2>=0.000
       9 -> 17        -0.29217
       9 -> 18        -0.30554
      11 -> 23         0.20092
      13 -> 32         0.51736

 Excited State  56:      Singlet-A'    12.7122 eV   97.53 nm  f=0.0006  <S**2>=0.000
       8 -> 17        -0.19751
       8 -> 18         0.33461
      11 -> 24         0.20427
      12 -> 25         0.12020
      13 -> 31        -0.10475
      13 -> 33         0.47834
      13 -> 34         0.18615

 Excited State  57:      Singlet-A"    12.7214 eV   97.46 nm  f=0.0938  <S**2>=0.000
       9 -> 18         0.24568
      10 -> 22        -0.28974
      11 -> 23         0.47330
      12 -> 24         0.29392
      13 -> 32        -0.11734

 Excited State  58:      Singlet-A'    12.7455 eV   97.28 nm  f=0.0104  <S**2>=0.000
       8 -> 17        -0.25207
       8 -> 18         0.46532
      11 -> 24         0.11772
      13 -> 31         0.12183
      13 -> 33        -0.39015
      13 -> 34        -0.13893

 Excited State  59:      Singlet-A"    12.7667 eV   97.12 nm  f=0.0118  <S**2>=0.000
       7 -> 15        -0.19481
       9 -> 17        -0.21394
       9 -> 18         0.51984
      12 -> 24        -0.21460
      13 -> 32         0.23314

 Excited State  60:      Singlet-A"    12.8600 eV   96.41 nm  f=0.0000  <S**2>=0.000
       9 -> 18         0.12261
      11 -> 23        -0.32035
      12 -> 24         0.56481

 Excited State  61:      Singlet-A'    12.8792 eV   96.27 nm  f=0.0425  <S**2>=0.000
       8 -> 17         0.19467
       8 -> 18         0.23575
      10 -> 21         0.17914
      10 -> 23        -0.13893
      11 -> 24        -0.32724
      13 -> 34         0.45406

 Excited State  62:      Singlet-A'    12.9185 eV   95.97 nm  f=0.0005  <S**2>=0.000
       7 -> 16        -0.12940
      10 -> 23         0.13092
      11 -> 24         0.46204
      12 -> 25        -0.30369
      13 -> 33        -0.15136
      13 -> 34         0.32770

 Excited State  63:      Singlet-A"    12.9483 eV   95.75 nm  f=0.0854  <S**2>=0.000
       7 -> 15         0.65183
       8 -> 19         0.10695
      12 -> 24        -0.15328

 Excited State  64:      Singlet-A'    13.0015 eV   95.36 nm  f=0.0101  <S**2>=0.000
       7 -> 16         0.34957
       8 -> 17        -0.25306
       8 -> 18        -0.20450
       9 -> 19         0.13245
      10 -> 21        -0.20346
      12 -> 25         0.24767
      13 -> 34         0.32268

 Excited State  65:      Singlet-A"    13.0981 eV   94.66 nm  f=0.0017  <S**2>=0.000
      11 -> 25         0.69200

 Excited State  66:      Singlet-A'    13.1285 eV   94.44 nm  f=0.0544  <S**2>=0.000
       7 -> 16        -0.28698
       9 -> 19        -0.24405
      12 -> 25         0.51905
      13 -> 33        -0.13562

 Excited State  67:      Singlet-A'    13.1656 eV   94.17 nm  f=0.0091  <S**2>=0.000
       7 -> 16         0.41592
       8 -> 17         0.12946
       9 -> 19        -0.23855
      10 -> 21         0.14988
      10 -> 23         0.42063

 Excited State  68:      Singlet-A'    13.3106 eV   93.15 nm  f=0.1155  <S**2>=0.000
       7 -> 16        -0.21527
       8 -> 17        -0.11002
       8 -> 20         0.27166
       9 -> 19         0.35598
      10 -> 23         0.41571
      11 -> 24        -0.15211
      13 -> 35         0.11078

 Excited State  69:      Singlet-A"    13.3621 eV   92.79 nm  f=0.0108  <S**2>=0.000
       8 -> 19        -0.19050
       9 -> 20        -0.16166
      10 -> 24         0.65501

 Excited State  70:      Singlet-A"    13.4915 eV   91.90 nm  f=0.0005  <S**2>=0.000
       8 -> 19        -0.38235
       8 -> 21         0.14599
       9 -> 20         0.45449
      13 -> 36         0.31092

 Excited State  71:      Singlet-A"    13.5176 eV   91.72 nm  f=0.0861  <S**2>=0.000
       8 -> 19         0.50984
       9 -> 20         0.33748
      10 -> 24         0.22526
      13 -> 36         0.20016

 Excited State  72:      Singlet-A'    13.5450 eV   91.54 nm  f=0.0026  <S**2>=0.000
       8 -> 20        -0.11322
      10 -> 25        -0.14242
      13 -> 35         0.64668

 Excited State  73:      Singlet-A'    13.5904 eV   91.23 nm  f=0.0298  <S**2>=0.000
       7 -> 18        -0.10145
       8 -> 20         0.40956
       9 -> 19        -0.20985
       9 -> 21        -0.10153
      10 -> 25        -0.34266
      12 -> 26        -0.33915

 Excited State  74:      Singlet-A"    13.6185 eV   91.04 nm  f=0.0733  <S**2>=0.000
       9 -> 20        -0.25432
      11 -> 26        -0.38775
      13 -> 36         0.50655

 Excited State  75:      Singlet-A'    13.6286 eV   90.97 nm  f=0.0323  <S**2>=0.000
       8 -> 20         0.11799
       9 -> 21        -0.18731
      10 -> 25        -0.35728
      12 -> 26         0.49166
      13 -> 35        -0.16522
      13 -> 37         0.11671

 Excited State  76:      Singlet-A'    13.7232 eV   90.35 nm  f=0.0103  <S**2>=0.000
       7 -> 17        -0.11126
       7 -> 18         0.22476
       8 -> 17         0.12771
       8 -> 20         0.14622
       8 -> 22         0.16463
       9 -> 19         0.31304
       9 -> 21        -0.27484
      10 -> 23        -0.11518
      10 -> 25         0.12869
      11 -> 24         0.12761
      12 -> 26        -0.21603
      13 -> 37         0.19982

 Excited State  77:      Singlet-A'    13.7590 eV   90.11 nm  f=0.1389  <S**2>=0.000
       7 -> 17         0.13308
       8 -> 20        -0.32246
       8 -> 22        -0.16815
      10 -> 23         0.11456
      10 -> 25        -0.31327
      12 -> 26        -0.24778
      13 -> 35        -0.10334
      13 -> 37         0.32965

 Excited State  78:      Singlet-A'    13.8219 eV   89.70 nm  f=0.1066  <S**2>=0.000
       8 -> 20         0.17831
       9 -> 21         0.53063
      10 -> 23        -0.12808
      13 -> 37         0.33422

 Excited State  79:      Singlet-A"    13.8241 eV   89.69 nm  f=0.1651  <S**2>=0.000
       8 -> 21        -0.22791
       9 -> 20        -0.17925
      11 -> 26         0.55168
      13 -> 36         0.26408

 Excited State  80:      Singlet-A"    13.8812 eV   89.32 nm  f=0.0009  <S**2>=0.000
       8 -> 21         0.31364
       9 -> 22         0.60772

 Excited State  81:      Singlet-A'    13.9119 eV   89.12 nm  f=0.0083  <S**2>=0.000
       7 -> 17         0.13399
       7 -> 18        -0.33937
       8 -> 22         0.37680
       9 -> 19        -0.10986
       9 -> 21        -0.17080
      13 -> 37         0.36113

 Excited State  82:      Singlet-A'    13.9427 eV   88.92 nm  f=0.0436  <S**2>=0.000
       7 -> 17         0.61871
       7 -> 18         0.14552
       8 -> 22         0.16589
       9 -> 21         0.10916
      13 -> 37        -0.11727

 Excited State  83:      Singlet-A"    13.9955 eV   88.59 nm  f=0.0213  <S**2>=0.000
       8 -> 19         0.13437
       8 -> 21         0.52185
       9 -> 22        -0.35345
      12 -> 27         0.14873

 Excited State  84:      Singlet-A'    14.0743 eV   88.09 nm  f=0.0576  <S**2>=0.000
       7 -> 18        -0.19371
       8 -> 22         0.26926
      10 -> 25        -0.11962
      10 -> 26         0.18584
      11 -> 27         0.20280
      13 -> 37        -0.13009
      13 -> 38         0.48748

 Excited State  85:      Singlet-A'    14.1258 eV   87.77 nm  f=0.0042  <S**2>=0.000
      10 -> 26        -0.11194
      11 -> 27         0.60253
      13 -> 38        -0.30791

 Excited State  86:      Singlet-A"    14.1263 eV   87.77 nm  f=0.0851  <S**2>=0.000
       8 -> 21        -0.11000
      12 -> 27         0.65932
      12 -> 28         0.11776

 Excited State  87:      Singlet-A'    14.1976 eV   87.33 nm  f=0.0510  <S**2>=0.000
       7 -> 17        -0.14523
       8 -> 22         0.20887
      10 -> 25        -0.13366
      10 -> 26         0.46590
      11 -> 27        -0.16795
      13 -> 37        -0.10525
      13 -> 38        -0.34241

 Excited State  88:      Singlet-A"    14.2334 eV   87.11 nm  f=0.0005  <S**2>=0.000
      13 -> 39         0.69983

 Excited State  89:      Singlet-A'    14.3266 eV   86.54 nm  f=0.1486  <S**2>=0.000
       7 -> 18         0.15515
       7 -> 20        -0.14253
       8 -> 17        -0.10629
       8 -> 22        -0.12795
       9 -> 19        -0.10609
       9 -> 23         0.38694
      10 -> 25         0.11816
      10 -> 26         0.34841
      11 -> 27         0.16968
      13 -> 37         0.14704
      13 -> 38         0.14238

 Excited State  90:      Singlet-A'    14.4454 eV   85.83 nm  f=0.0412  <S**2>=0.000
       7 -> 17        -0.10852
       7 -> 18         0.39632
       8 -> 22         0.23534
       9 -> 19        -0.11586
       9 -> 23        -0.13694
       9 -> 25         0.15042
      10 -> 21        -0.10343
      10 -> 26        -0.16104
      13 -> 38         0.10050
      13 -> 40         0.27178

 Excited State  91:      Singlet-A"    14.5181 eV   85.40 nm  f=0.0096  <S**2>=0.000
       7 -> 19         0.11064
       8 -> 23         0.58606
      10 -> 27        -0.15265
      13 -> 41         0.33748

 Excited State  92:      Singlet-A'    14.5330 eV   85.31 nm  f=0.0095  <S**2>=0.000
       7 -> 18        -0.13392
       9 -> 23         0.12108
      13 -> 40         0.62752

 Excited State  93:      Singlet-A"    14.6035 eV   84.90 nm  f=0.0028  <S**2>=0.000
       7 -> 19        -0.19447
       8 -> 23        -0.31784
      10 -> 27        -0.14623
      13 -> 41         0.56325

 Excited State  94:      Singlet-A'    14.6051 eV   84.89 nm  f=0.1227  <S**2>=0.000
       7 -> 20         0.27026
       8 -> 22         0.14031
       9 -> 23         0.49886
       9 -> 25         0.10502
      10 -> 25        -0.10033
      10 -> 26        -0.18491
      11 -> 28        -0.18579

 Excited State  95:      Singlet-A"    14.6378 eV   84.70 nm  f=0.0264  <S**2>=0.000
       9 -> 24        -0.23753
      10 -> 27         0.61901
      13 -> 41         0.20221

 Excited State  96:      Singlet-A"    14.7240 eV   84.21 nm  f=0.0234  <S**2>=0.000
       7 -> 19         0.20384
       8 -> 25        -0.11662
       9 -> 24         0.62503
      10 -> 27         0.17898
      12 -> 28        -0.10415

 Excited State  97:      Singlet-A'    14.7655 eV   83.97 nm  f=0.0143  <S**2>=0.000
       8 -> 24         0.68030
       9 -> 25        -0.13575

 Excited State  98:      Singlet-A"    14.7774 eV   83.90 nm  f=0.0368  <S**2>=0.000
       7 -> 19         0.60357
       8 -> 23        -0.16915
       9 -> 24        -0.16837
      10 -> 27        -0.14766

 Excited State  99:      Singlet-A"    14.8820 eV   83.31 nm  f=0.0146  <S**2>=0.000
      11 -> 29         0.34245
      12 -> 28         0.42486
      13 -> 42         0.42457

 Excited State 100:      Singlet-A"    14.8839 eV   83.30 nm  f=0.0004  <S**2>=0.000
       7 -> 19        -0.10162
       8 -> 25         0.12282
      11 -> 29        -0.19395
      12 -> 28        -0.38957
      13 -> 42         0.51704

 Excited State 101:      Singlet-A'    14.9395 eV   82.99 nm  f=0.1384  <S**2>=0.000
       7 -> 20         0.50991
       7 -> 22         0.16495
       9 -> 23        -0.13225
      11 -> 28         0.23112
      12 -> 29        -0.24328

 Excited State 102:      Singlet-A"    14.9780 eV   82.78 nm  f=0.0010  <S**2>=0.000
       8 -> 25         0.16128
      13 -> 43         0.66386

 Excited State 103:      Singlet-A'    15.0366 eV   82.45 nm  f=0.0092  <S**2>=0.000
       7 -> 20        -0.13279
       7 -> 22        -0.25192
       9 -> 25         0.49758
      11 -> 28         0.36330

 Excited State 104:      Singlet-A"    15.1292 eV   81.95 nm  f=0.0216  <S**2>=0.000
       7 -> 21         0.63245
       8 -> 25        -0.25054

 Excited State 105:      Singlet-A"    15.1793 eV   81.68 nm  f=0.0837  <S**2>=0.000
       7 -> 21         0.17255
       8 -> 25         0.49226
      10 -> 27         0.10035
      11 -> 29        -0.27542
      12 -> 28         0.16542
      13 -> 42        -0.11644
      13 -> 43        -0.18160

 Excited State 106:      Singlet-A'    15.1854 eV   81.65 nm  f=0.1256  <S**2>=0.000
       6 -> 14        -0.18841
       7 -> 20         0.17593
       7 -> 22        -0.20189
       9 -> 25        -0.15705

 The electronic state is 1-A'.
 Alpha  occ. eigenvalues --  -14.00521  -9.93797  -9.93795  -0.80852  -0.62258
 Alpha  occ. eigenvalues --   -0.55539  -0.43743  -0.39025  -0.38869  -0.33852
 Alpha  occ. eigenvalues --   -0.32022  -0.31773  -0.17934
 Alpha virt. eigenvalues --    0.00311   0.03456   0.04033   0.07338   0.07594
 Alpha virt. eigenvalues --    0.10190   0.10404   0.11699   0.12165   0.14192
 Alpha virt. eigenvalues --    0.15098   0.16028   0.18323   0.19898   0.22680

 Mulliken charges:
               1
     1  C    1.035597
     2  N   -0.571418
     3  C    1.035597
     4  H   -0.373233
     5  H   -0.093687
     6  H   -0.215695
     7  H   -0.134547
     8  H   -0.215695
     9  H   -0.093687
    10  H   -0.373233
 Sum of Mulliken charges =  -0.00000

 Dipole moment (field-independent basis, Debye):
    X=              0.8735    Y=             -0.2955    Z=             -0.0000  Tot=              0.9221
 Quadrupole moment (field-independent basis, Debye-Ang):
   XX=            -21.3870   YY=            -21.9709   ZZ=            -20.4487
   XY=              2.1079   XZ=              0.0000   YZ=             -0.0000

 Normal termination of Gaussian 16 at Mon Mar 21 20:08:21 2022.
