 Gaussian 16, Revision C.01,
 Gaussian 16:  EM64L-G16RevC.01  3-Jul-2019

 --------------------------------------------------------------------
 #P TD(Nstates=10000) blyp/Gen SCF(maxcycles=100) Int(Grid=ultrafine)
 --------------------------------------------------------------------

 ---------------------
 xGDB7_00001_tier4.com
 ---------------------
 Symbolic Z-matrix:
 Charge =  0 Multiplicity = 1

                         Standard orientation:
 ---------------------------------------------------------------------
 Center     Atomic      Atomic             Coordinates (Angstroms)
 Number     Number       Type             X           Y           Z
 ---------------------------------------------------------------------
      1          6           0        0.000000    1.267731   -0.259082
      2          6           0       -0.000000   -0.000000    0.585552
      3          6           0       -0.000000   -1.267731   -0.259082
      4          1           0        0.000000    2.164308    0.363087
      5          1           0       -0.881453    1.307675   -0.903652
      6          1           0        0.881453    1.307675   -0.903652
      7          1           0       -0.874532    0.000000    1.242055
      8          1           0        0.874532   -0.000000    1.242055
      9          1           0       -0.881453   -1.307675   -0.903652
     10          1           0       -0.000000   -2.164308    0.363087
     11          1           0        0.881453   -1.307675   -0.903652
 ---------------------------------------------------------------------

 SCF Done:  E(RB-LYP) =  -118.969593044     A.U. after   12 cycles

 Excitation energies and oscillator strengths:

 Excited State   1:      Singlet-B1     7.8978 eV  156.99 nm  f=0.0033  <S**2>=0.000
      13 -> 14         0.70671
 This state for optimization and/or second-order correction.
 Total Energy, E(TD-HF/TD-DFT) =  -118.679354164
 Copying the excited state density for this state as the 1-particle RhoCI density.

 Excited State   2:      Singlet-B2     8.2319 eV  150.61 nm  f=0.0436  <S**2>=0.000
      11 -> 14         0.70608

 Excited State   3:      Singlet-A1     8.2413 eV  150.44 nm  f=0.0063  <S**2>=0.000
      12 -> 14         0.70352

 Excited State   4:      Singlet-A2     8.6591 eV  143.18 nm  f=0.0000  <S**2>=0.000
      13 -> 15         0.70610

 Excited State   5:      Singlet-B1     8.9016 eV  139.28 nm  f=0.0692  <S**2>=0.000
      13 -> 16         0.70491

 Excited State   6:      Singlet-B2     8.9570 eV  138.42 nm  f=0.0219  <S**2>=0.000
      12 -> 15         0.70606

 Excited State   7:      Singlet-A1     9.0550 eV  136.92 nm  f=0.0021  <S**2>=0.000
      11 -> 15         0.70114

 Excited State   8:      Singlet-A1     9.1524 eV  135.47 nm  f=0.0650  <S**2>=0.000
      12 -> 16         0.67207
      13 -> 17        -0.21588

 Excited State   9:      Singlet-B2     9.1939 eV  134.85 nm  f=0.0103  <S**2>=0.000
      11 -> 16         0.70455

 Excited State  10:      Singlet-A2     9.2542 eV  133.98 nm  f=0.0000  <S**2>=0.000
      10 -> 14         0.70577

 Excited State  11:      Singlet-A1     9.5147 eV  130.31 nm  f=0.1751  <S**2>=0.000
      12 -> 16         0.20961
      13 -> 17         0.66590

 Excited State  12:      Singlet-A2     9.6816 eV  128.06 nm  f=0.0000  <S**2>=0.000
      11 -> 17         0.70622

 Excited State  13:      Singlet-B1     9.6911 eV  127.94 nm  f=0.0694  <S**2>=0.000
      12 -> 17         0.69070
      13 -> 18         0.10570

 Excited State  14:      Singlet-B2     9.7846 eV  126.71 nm  f=0.0131  <S**2>=0.000
       9 -> 14         0.69950

 Excited State  15:      Singlet-B1     9.8115 eV  126.37 nm  f=0.0036  <S**2>=0.000
      13 -> 18         0.69699

 Excited State  16:      Singlet-B1    10.0570 eV  123.28 nm  f=0.0828  <S**2>=0.000
      10 -> 15         0.69741

 Excited State  17:      Singlet-A1    10.1540 eV  122.10 nm  f=0.0007  <S**2>=0.000
      12 -> 18         0.70053

 Excited State  18:      Singlet-A2    10.2072 eV  121.47 nm  f=0.0000  <S**2>=0.000
      10 -> 16         0.70546

 Excited State  19:      Singlet-B2    10.2121 eV  121.41 nm  f=0.1638  <S**2>=0.000
      11 -> 18         0.69328

 Excited State  20:      Singlet-A1    10.4515 eV  118.63 nm  f=0.0068  <S**2>=0.000
       8 -> 14        -0.14441
       9 -> 15         0.27229
      13 -> 19         0.62148

 Excited State  21:      Singlet-A1    10.5717 eV  117.28 nm  f=0.0723  <S**2>=0.000
       9 -> 15         0.64492
      13 -> 19        -0.26705

 Excited State  22:      Singlet-A2    10.5918 eV  117.06 nm  f=0.0000  <S**2>=0.000
      11 -> 19         0.21298
      13 -> 21         0.67303

 Excited State  23:      Singlet-B1    10.6026 eV  116.94 nm  f=0.0085  <S**2>=0.000
      12 -> 19         0.51805
      13 -> 20         0.47302

 Excited State  24:      Singlet-B1    10.6262 eV  116.68 nm  f=0.0000  <S**2>=0.000
      12 -> 19        -0.47821
      13 -> 20         0.51685

 Excited State  25:      Singlet-A2    10.6529 eV  116.38 nm  f=0.0000  <S**2>=0.000
      11 -> 19         0.67133
      13 -> 21        -0.21131

 Excited State  26:      Singlet-B2    10.6821 eV  116.07 nm  f=0.0062  <S**2>=0.000
       9 -> 16         0.61350
      10 -> 17        -0.34528

 Excited State  27:      Singlet-A1    10.7619 eV  115.21 nm  f=0.0382  <S**2>=0.000
       8 -> 14         0.67036
      11 -> 21         0.14974
      13 -> 19         0.11825

 Excited State  28:      Singlet-B2    10.7736 eV  115.08 nm  f=0.0012  <S**2>=0.000
       9 -> 16         0.27359
      10 -> 17         0.52899
      12 -> 21        -0.34257
      13 -> 22         0.13714

 Excited State  29:      Singlet-B2    10.9018 eV  113.73 nm  f=0.0015  <S**2>=0.000
       9 -> 16         0.13853
      10 -> 17         0.20084
      11 -> 20         0.36480
      12 -> 21         0.47989
      13 -> 22         0.25598

 Excited State  30:      Singlet-B2    10.9314 eV  113.42 nm  f=0.0798  <S**2>=0.000
      11 -> 20         0.58386
      12 -> 21        -0.27624
      13 -> 22        -0.27524

 Excited State  31:      Singlet-A1    10.9765 eV  112.95 nm  f=0.0017  <S**2>=0.000
      11 -> 21        -0.15932
      12 -> 20         0.66985

 Excited State  32:      Singlet-A1    11.0265 eV  112.44 nm  f=0.0563  <S**2>=0.000
       8 -> 14        -0.13530
      11 -> 21         0.66049
      12 -> 20         0.16364

 Excited State  33:      Singlet-B2    11.1462 eV  111.23 nm  f=0.1926  <S**2>=0.000
       8 -> 15         0.10967
       9 -> 16        -0.13868
      10 -> 17        -0.20372
      11 -> 20         0.11843
      12 -> 21        -0.24643
      13 -> 22         0.56016
      13 -> 23        -0.11515

 Excited State  34:      Singlet-A2    11.1719 eV  110.98 nm  f=0.0000  <S**2>=0.000
       9 -> 17         0.51759
      10 -> 18         0.46920

 Excited State  35:      Singlet-A2    11.1984 eV  110.72 nm  f=0.0000  <S**2>=0.000
       9 -> 17         0.45500
      10 -> 18        -0.42881
      12 -> 22         0.32324

 Excited State  36:      Singlet-B1    11.2848 eV  109.87 nm  f=0.1090  <S**2>=0.000
       7 -> 14         0.68316
      11 -> 22        -0.12779

 Excited State  37:      Singlet-A2    11.3205 eV  109.52 nm  f=0.0000  <S**2>=0.000
       9 -> 17        -0.14968
      10 -> 18         0.27370
      12 -> 22         0.60893
      12 -> 23        -0.14743

 Excited State  38:      Singlet-B1    11.3284 eV  109.45 nm  f=0.0147  <S**2>=0.000
       7 -> 14         0.11579
      11 -> 22         0.68981

 Excited State  39:      Singlet-B2    11.4494 eV  108.29 nm  f=0.0081  <S**2>=0.000
       8 -> 15         0.22762
      13 -> 23         0.64729

 Excited State  40:      Singlet-B2    11.5526 eV  107.32 nm  f=0.1389  <S**2>=0.000
       8 -> 15         0.61762
       9 -> 18         0.20330
      13 -> 23        -0.22377

 Excited State  41:      Singlet-B1    11.5836 eV  107.03 nm  f=0.0124  <S**2>=0.000
      13 -> 24         0.69695

 Excited State  42:      Singlet-B1    11.6740 eV  106.21 nm  f=0.0158  <S**2>=0.000
      11 -> 23         0.70080

 Excited State  43:      Singlet-A2    11.6771 eV  106.18 nm  f=0.0000  <S**2>=0.000
      12 -> 23         0.65509
      13 -> 25        -0.20176

 Excited State  44:      Singlet-A1    11.6822 eV  106.13 nm  f=0.0252  <S**2>=0.000
       8 -> 16         0.69507

 Excited State  45:      Singlet-B2    11.7026 eV  105.95 nm  f=0.0584  <S**2>=0.000
       8 -> 15        -0.11999
       9 -> 18         0.60142
      10 -> 19        -0.32691

 Excited State  46:      Singlet-A2    11.8060 eV  105.02 nm  f=0.0000  <S**2>=0.000
      10 -> 20         0.16096
      12 -> 23         0.16069
      13 -> 25         0.66119

 Excited State  47:      Singlet-B2    11.8124 eV  104.96 nm  f=0.0043  <S**2>=0.000
       8 -> 15        -0.15650
       9 -> 18         0.25220
       9 -> 20        -0.15093
      10 -> 19         0.58004
      11 -> 24        -0.13918

 Excited State  48:      Singlet-A1    11.9068 eV  104.13 nm  f=0.0075  <S**2>=0.000
      11 -> 25        -0.25588
      12 -> 24         0.64345

 Excited State  49:      Singlet-A2    11.9221 eV  104.00 nm  f=0.0000  <S**2>=0.000
      10 -> 20         0.67756
      12 -> 23        -0.10956
      13 -> 25        -0.12235

 Excited State  50:      Singlet-B1    11.9778 eV  103.51 nm  f=0.0392  <S**2>=0.000
      10 -> 21         0.69562

 Excited State  51:      Singlet-A2    11.9963 eV  103.35 nm  f=0.0000  <S**2>=0.000
       7 -> 15         0.70164

 Excited State  52:      Singlet-B2    12.0015 eV  103.31 nm  f=0.0103  <S**2>=0.000
       9 -> 18         0.10434
      11 -> 24         0.67487

 Excited State  53:      Singlet-B2    12.1233 eV  102.27 nm  f=0.0570  <S**2>=0.000
      12 -> 25         0.68874

 Excited State  54:      Singlet-A2    12.1646 eV  101.92 nm  f=0.0000  <S**2>=0.000
       9 -> 19         0.69470

 Excited State  55:      Singlet-B1    12.1793 eV  101.80 nm  f=0.0014  <S**2>=0.000
       8 -> 17         0.69566

 Excited State  56:      Singlet-A1    12.1906 eV  101.70 nm  f=0.0002  <S**2>=0.000
       8 -> 18         0.12359
       9 -> 21         0.17197
      10 -> 22        -0.13865
      11 -> 25         0.61050
      12 -> 24         0.19224
      13 -> 26         0.12603

 Excited State  57:      Singlet-B1    12.2091 eV  101.55 nm  f=0.0000  <S**2>=0.000
       7 -> 16         0.69630

 Excited State  58:      Singlet-A1    12.3772 eV  100.17 nm  f=0.0005  <S**2>=0.000
       7 -> 17        -0.11048
       9 -> 21         0.42883
      10 -> 22         0.34609
      13 -> 26        -0.42076

 Excited State  59:      Singlet-A1    12.4631 eV   99.48 nm  f=0.0398  <S**2>=0.000
       8 -> 18        -0.10380
       9 -> 21         0.22922
      10 -> 22         0.35875
      10 -> 23        -0.23233
      13 -> 26         0.48208

 Excited State  60:      Singlet-A2    12.5132 eV   99.08 nm  f=0.0000  <S**2>=0.000
      11 -> 26        -0.10991
      13 -> 27         0.68751

 Excited State  61:      Singlet-B2    12.5192 eV   99.04 nm  f=0.0032  <S**2>=0.000
       9 -> 20         0.65019
      11 -> 28         0.14913
      12 -> 27        -0.17076

 Excited State  62:      Singlet-A1    12.5491 eV   98.80 nm  f=0.0360  <S**2>=0.000
       7 -> 17         0.31626
       8 -> 18        -0.36263
       9 -> 21         0.37521
      10 -> 22        -0.32664

 Excited State  63:      Singlet-B1    12.6234 eV   98.22 nm  f=0.0030  <S**2>=0.000
      12 -> 26         0.64597
      13 -> 28        -0.28251

 Excited State  64:      Singlet-A1    12.6835 eV   97.75 nm  f=0.0004  <S**2>=0.000
       7 -> 17         0.42339
       8 -> 18         0.48922
      10 -> 23        -0.18664
      11 -> 27        -0.13208

 Excited State  65:      Singlet-A2    12.6988 eV   97.63 nm  f=0.0000  <S**2>=0.000
      11 -> 26         0.69398

 Excited State  66:      Singlet-B1    12.8037 eV   96.83 nm  f=0.0201  <S**2>=0.000
       7 -> 18         0.10827
       9 -> 22        -0.31142
      12 -> 26         0.21114
      12 -> 29        -0.18594
      13 -> 28         0.53839

 Excited State  67:      Singlet-A1    12.8364 eV   96.59 nm  f=0.0020  <S**2>=0.000
       7 -> 17         0.12421
      11 -> 27         0.65794
      12 -> 28         0.10803
      13 -> 29        -0.13370

 Excited State  68:      Singlet-B2    12.8400 eV   96.56 nm  f=0.0605  <S**2>=0.000
       9 -> 20         0.10150
      11 -> 28         0.23443
      12 -> 27         0.64500

 Excited State  69:      Singlet-B1    12.8687 eV   96.35 nm  f=0.0411  <S**2>=0.000
       7 -> 18         0.12841
       8 -> 19         0.11176
       9 -> 22         0.61156
       9 -> 23        -0.12294
      10 -> 25        -0.12280
      12 -> 26         0.12278
      12 -> 29        -0.10227
      13 -> 28         0.19448

 Excited State  70:      Singlet-A1    12.9006 eV   96.11 nm  f=0.0232  <S**2>=0.000
       7 -> 17         0.20448
       8 -> 20         0.10189
      10 -> 22         0.13404
      10 -> 23         0.57235
      13 -> 29        -0.26127

 Excited State  71:      Singlet-A2    12.9327 eV   95.87 nm  f=0.0000  <S**2>=0.000
      10 -> 24         0.70533

 Excited State  72:      Singlet-A1    13.0254 eV   95.19 nm  f=0.0309  <S**2>=0.000
      11 -> 27        -0.12740
      12 -> 28         0.62695
      13 -> 29        -0.23370

 Excited State  73:      Singlet-B1    13.1203 eV   94.50 nm  f=0.0000  <S**2>=0.000
       7 -> 18         0.53953
       8 -> 19        -0.37718
      10 -> 25         0.25378

 Excited State  74:      Singlet-B1    13.1515 eV   94.27 nm  f=0.0003  <S**2>=0.000
       8 -> 19         0.41259
       9 -> 23        -0.12930
      10 -> 25         0.55713

 Excited State  75:      Singlet-B1    13.1783 eV   94.08 nm  f=0.0114  <S**2>=0.000
       7 -> 18         0.22990
       8 -> 19         0.29563
       9 -> 23         0.57265
      10 -> 25        -0.10423
      12 -> 29        -0.13291

 Excited State  76:      Singlet-A1    13.1876 eV   94.02 nm  f=0.0691  <S**2>=0.000
       8 -> 20         0.21463
       9 -> 25        -0.13772
      10 -> 23         0.16968
      12 -> 28         0.27774
      13 -> 26         0.10229
      13 -> 29         0.52900

 Excited State  77:      Singlet-B2    13.1996 eV   93.93 nm  f=0.0521  <S**2>=0.000
       8 -> 21         0.14900
       9 -> 20        -0.13063
       9 -> 24        -0.13106
      11 -> 28         0.60592
      11 -> 31        -0.10504
      12 -> 27        -0.15042
      12 -> 30        -0.14736

 Excited State  78:      Singlet-A2    13.2114 eV   93.85 nm  f=0.0000  <S**2>=0.000
      11 -> 29         0.70314

 Excited State  79:      Singlet-B1    13.2422 eV   93.63 nm  f=0.0293  <S**2>=0.000
       7 -> 18         0.22348
       8 -> 19         0.20589
      10 -> 25        -0.16434
      12 -> 29         0.59763

 Excited State  80:      Singlet-A1    13.3987 eV   92.53 nm  f=0.0359  <S**2>=0.000
       7 -> 17         0.17456
       7 -> 19        -0.13183
       8 -> 18        -0.14415
       8 -> 20         0.52240
       9 -> 21        -0.13562
       9 -> 25         0.18105
      10 -> 23        -0.12801
      11 -> 30        -0.14320
      13 -> 26        -0.11025

 Excited State  81:      Singlet-B2    13.4559 eV   92.14 nm  f=0.0545  <S**2>=0.000
       8 -> 21        -0.32928
       9 -> 24         0.58452
      11 -> 28         0.12282
      12 -> 30        -0.10866

 Excited State  82:      Singlet-B2    13.5558 eV   91.46 nm  f=0.0419  <S**2>=0.000
       8 -> 21         0.54483
       9 -> 24         0.32886
      10 -> 26         0.26446

 Excited State  83:      Singlet-B1    13.5997 eV   91.17 nm  f=0.1176  <S**2>=0.000
       7 -> 18         0.18581
       7 -> 20         0.22216
       8 -> 19         0.13640
       9 -> 23        -0.26587
      10 -> 25        -0.19570
      10 -> 27         0.42177
      12 -> 29        -0.22585
      13 -> 28        -0.17595

 Excited State  84:      Singlet-A1    13.6766 eV   90.65 nm  f=0.0088  <S**2>=0.000
       7 -> 19         0.28117
       9 -> 25         0.61340
      11 -> 30         0.11210
      13 -> 29         0.10138

 Excited State  85:      Singlet-A2    13.7427 eV   90.22 nm  f=0.0000  <S**2>=0.000
       8 -> 22         0.17902
      13 -> 30         0.67969

 Excited State  86:      Singlet-A1    13.8033 eV   89.82 nm  f=0.1396  <S**2>=0.000
       6 -> 14        -0.18656
       7 -> 17        -0.14205
       7 -> 19         0.47235
       8 -> 20         0.29813
       9 -> 21         0.11547
       9 -> 25        -0.12145
      10 -> 22        -0.17022

 Excited State  87:      Singlet-A2    13.8158 eV   89.74 nm  f=0.0000  <S**2>=0.000
       8 -> 22         0.68116
      13 -> 30        -0.17928

 Excited State  88:      Singlet-B2    13.8431 eV   89.56 nm  f=0.0869  <S**2>=0.000
       8 -> 21        -0.20193
       9 -> 24        -0.11550
      10 -> 26         0.63387
      10 -> 29        -0.10026

 Excited State  89:      Singlet-A2    13.9246 eV   89.04 nm  f=0.0000  <S**2>=0.000
       7 -> 21         0.70321

 Excited State  90:      Singlet-A1    13.9311 eV   89.00 nm  f=0.0250  <S**2>=0.000
       6 -> 16        -0.17204
       7 -> 17         0.23411
       7 -> 19         0.35910
       8 -> 18        -0.17940
       8 -> 20        -0.18989
       9 -> 21        -0.17283
       9 -> 25        -0.19511
       9 -> 27         0.10690
      10 -> 22         0.15155
      11 -> 25         0.13965
      11 -> 30        -0.12325
      12 -> 24         0.12433
      13 -> 26        -0.11874

 Excited State  91:      Singlet-B1    13.9352 eV   88.97 nm  f=0.0085  <S**2>=0.000
       7 -> 20         0.59163
      10 -> 27        -0.36968

 Excited State  92:      Singlet-A2    14.0757 eV   88.08 nm  f=0.0000  <S**2>=0.000
       8 -> 23         0.21163
       9 -> 26        -0.28862
      10 -> 28         0.60390

 Excited State  93:      Singlet-B2    14.1011 eV   87.92 nm  f=0.0527  <S**2>=0.000
       7 -> 22        -0.15578
      10 -> 29        -0.14720
      11 -> 31        -0.21857
      12 -> 30         0.61080

 Excited State  94:      Singlet-A1    14.1913 eV   87.37 nm  f=0.0673  <S**2>=0.000
       6 -> 14         0.23338
       8 -> 24         0.25338
       9 -> 27        -0.18845
      11 -> 30         0.55333

 Excited State  95:      Singlet-A2    14.1966 eV   87.33 nm  f=0.0000  <S**2>=0.000
       8 -> 23         0.56655
       9 -> 26         0.41719

 Excited State  96:      Singlet-B1    14.1981 eV   87.32 nm  f=0.1404  <S**2>=0.000
      10 -> 27        -0.15561
      13 -> 31         0.67199

 Excited State  97:      Singlet-B1    14.3021 eV   86.69 nm  f=0.5339  <S**2>=0.000
       7 -> 18        -0.16064
       7 -> 20         0.29206
       7 -> 24        -0.14354
       8 -> 19        -0.12472
       9 -> 23         0.19030
      10 -> 25         0.12868
      10 -> 27         0.37144
      12 -> 29         0.13327
      12 -> 36        -0.10038
      13 -> 28         0.17021
      13 -> 31         0.20729

 Excited State  98:      Singlet-A1    14.3110 eV   86.64 nm  f=0.1140  <S**2>=0.000
       6 -> 14         0.55362
       9 -> 27         0.35778

 Excited State  99:      Singlet-A2    14.3317 eV   86.51 nm  f=0.0000  <S**2>=0.000
       8 -> 23        -0.34133
       9 -> 26         0.47521
       9 -> 29        -0.17300
      10 -> 28         0.31990

 Excited State 100:      Singlet-B2    14.3364 eV   86.48 nm  f=0.0595  <S**2>=0.000
       7 -> 22         0.12488
      10 -> 29         0.61703
      11 -> 31        -0.25206
      12 -> 30         0.10515

 Excited State 101:      Singlet-A1    14.4019 eV   86.09 nm  f=0.0010  <S**2>=0.000
       6 -> 14        -0.20261
       8 -> 24         0.49053
       9 -> 27         0.42017
      12 -> 31         0.15556

 Excited State 102:      Singlet-B2    14.4300 eV   85.92 nm  f=0.0441  <S**2>=0.000
       7 -> 22         0.59985
       8 -> 25        -0.27296
      10 -> 29        -0.16628
      11 -> 31        -0.11223

 Excited State 103:      Singlet-B2    14.5464 eV   85.23 nm  f=0.0043  <S**2>=0.000
       7 -> 23         0.11093
       8 -> 25         0.21072
       9 -> 28         0.65871

 Excited State 104:      Singlet-A1    14.5927 eV   84.96 nm  f=0.0471  <S**2>=0.000
       8 -> 24        -0.23899
      12 -> 31         0.64018

 Excited State 105:      Singlet-B2    14.7338 eV   84.15 nm  f=0.0298  <S**2>=0.000
       6 -> 15         0.18927
       7 -> 22         0.16831
       7 -> 23        -0.37420
       8 -> 25         0.49480
      11 -> 31         0.11322

 Excited State 106:      Singlet-A2    14.7801 eV   83.89 nm  f=0.0000  <S**2>=0.000
       7 -> 25         0.12642
       9 -> 29         0.67199

 Excited State 107:      Singlet-B2    14.8333 eV   83.58 nm  f=0.0269  <S**2>=0.000
       6 -> 15         0.13863
       7 -> 22         0.11457
       7 -> 23         0.49902
       8 -> 25         0.30067
       9 -> 28        -0.20422
      10 -> 29        -0.17039
      11 -> 31        -0.18472

 Excited State 108:      Singlet-B2    14.9287 eV   83.05 nm  f=0.4246  <S**2>=0.000
       6 -> 15         0.47030
       7 -> 23         0.17372
       8 -> 25        -0.13271
      11 -> 31         0.40668
      12 -> 30         0.11263
      13 -> 34        -0.10631

 Excited State 109:      Singlet-B1    14.9473 eV   82.95 nm  f=0.0348  <S**2>=0.000
       7 -> 24         0.66267
      10 -> 30         0.18376

 Excited State 110:      Singlet-A1    14.9676 eV   82.83 nm  f=0.4067  <S**2>=0.000
       6 -> 14         0.19143
       7 -> 26         0.12606
       8 -> 24         0.32182
       9 -> 27        -0.32095
      11 -> 30        -0.30164
      11 -> 42         0.10540
      12 -> 31         0.17001
      12 -> 33         0.14250

 Excited State 111:      Singlet-B1    15.1186 eV   82.01 nm  f=0.0055  <S**2>=0.000
       7 -> 24        -0.16139
       8 -> 26        -0.11722
      10 -> 30         0.67299

 Excited State 112:      Singlet-B2    15.1585 eV   81.79 nm  f=0.0243  <S**2>=0.000
       6 -> 15         0.41055
       7 -> 22        -0.11968
       7 -> 23        -0.12421
       8 -> 27        -0.28968
      11 -> 31        -0.26280
      12 -> 30        -0.13766
      12 -> 32         0.10695
      13 -> 34         0.27378

 Excited State 113:      Singlet-A2    15.1724 eV   81.72 nm  f=0.0000  <S**2>=0.000
       7 -> 25         0.67966

 Excited State 114:      Singlet-B1    15.2183 eV   81.47 nm  f=0.0757  <S**2>=0.000
       8 -> 26         0.67095
      13 -> 33        -0.12147

 Excited State 115:      Singlet-B2    15.3036 eV   81.02 nm  f=0.0029  <S**2>=0.000
       8 -> 27         0.60955
      13 -> 34         0.31055

 Excited State 116:      Singlet-A1    15.3507 eV   80.77 nm  f=0.0026  <S**2>=0.000
       6 -> 16         0.63066
      11 -> 32         0.11233
      12 -> 33         0.15327
      12 -> 35         0.13860

 Excited State 117:      Singlet-A2    15.4778 eV   80.10 nm  f=0.0000  <S**2>=0.000
      13 -> 32         0.69012

 Excited State 118:      Singlet-B1    15.4871 eV   80.06 nm  f=0.0126  <S**2>=0.000
       7 -> 28        -0.11720

 The electronic state is 1-A1.
 Alpha  occ. eigenvalues --   -9.91642  -9.90970  -9.90968  -0.69608  -0.60206
 Alpha  occ. eigenvalues --   -0.51399  -0.40488  -0.38590  -0.35000  -0.33237
 Alpha  occ. eigenvalues --   -0.29423  -0.29274  -0.28264
 Alpha virt. eigenvalues --    0.00606   0.03482   0.04194   0.06055   0.07703
 Alpha virt. eigenvalues --    0.09666   0.10570   0.10639   0.12142   0.13456
 Alpha virt. eigenvalues --    0.14249   0.15032   0.17184   0.17564   0.18332

 Mulliken charges:
               1
     1  C    0.779132
     2  C   -0.249319
     3  C    0.779132
     4  H   -0.187182
     5  H   -0.125149
     6  H   -0.125149
     7  H   -0.216993
     8  H   -0.216993
     9  H   -0.125149
    10  H   -0.187182
    11  H   -0.125149
 Sum of Mulliken charges =   0.00000

 Dipole moment (field-independent basis, Debye):
    X=              0.0000    Y=             -0.0000    Z=              0.0991  Tot=              0.0991
 Quadrupole moment (field-independent basis, Debye-Ang):
   XX=            -21.8917   YY=            -22.8201   ZZ=            -22.4145
   XY=             -0.0000   XZ=              0.0000   YZ=              0.0000

 Normal termination of Gaussian 16 at Mon Mar 21 20:04:31 2022.
