 Gaussian 16, Revision C.01,
 Gaussian 16:  EM64L-G16RevC.01  3-Jul-2019

 --------------------------------------------------------------------
 #P TD(Nstates=10000) blyp/Gen SCF(maxcycles=100) Int(Grid=ultrafine)
 --------------------------------------------------------------------

 ---------------------
 xGDB7_00001_tier4.com
 ---------------------
 Symbolic Z-matrix:
 Charge =  0 Multiplicity = 1

                         Standard orientation:
 ---------------------------------------------------------------------
 Center     Atomic      Atomic             Coordinates (Angstroms)
 Number     Number       Type             X           Y           Z
 ---------------------------------------------------------------------
      1          6           0        0.037922   -0.393776    0.738519
      2          6           0        0.037922   -0.393776   -0.738519
      3          7           0        0.037922    0.865964    0.000000
      4          1           0        0.953211   -0.606479    1.276872
      5          1           0       -0.870248   -0.700655    1.244917
      6          1           0       -0.870248   -0.700655   -1.244917
      7          1           0        0.953211   -0.606479   -1.276872
      8          1           0       -0.886454    1.277834    0.000000
 ---------------------------------------------------------------------

 SCF Done:  E(RB-LYP) =  -133.766801617     A.U. after   12 cycles

 Excitation energies and oscillator strengths:

 Excited State   1:      Singlet-A'     5.8635 eV  211.45 nm  f=0.0027  <S**2>=0.000
      12 -> 13         0.70604
 This state for optimization and/or second-order correction.
 Total Energy, E(TD-HF/TD-DFT) =  -133.551322385
 Copying the excited state density for this state as the 1-particle RhoCI density.

 Excited State   2:      Singlet-A"     6.5665 eV  188.81 nm  f=0.0023  <S**2>=0.000
      12 -> 15         0.70679

 Excited State   3:      Singlet-A'     6.6100 eV  187.57 nm  f=0.0248  <S**2>=0.000
      12 -> 14         0.70539

 Excited State   4:      Singlet-A'     7.4051 eV  167.43 nm  f=0.0742  <S**2>=0.000
      12 -> 16         0.70383

 Excited State   5:      Singlet-A'     8.2195 eV  150.84 nm  f=0.0056  <S**2>=0.000
      11 -> 13         0.70435

 Excited State   6:      Singlet-A"     8.2485 eV  150.31 nm  f=0.0319  <S**2>=0.000
      12 -> 17         0.69406

 Excited State   7:      Singlet-A'     8.4605 eV  146.54 nm  f=0.0049  <S**2>=0.000
      12 -> 18         0.70251

 Excited State   8:      Singlet-A"     8.5349 eV  145.27 nm  f=0.0018  <S**2>=0.000
      10 -> 13         0.70322

 Excited State   9:      Singlet-A"     8.9021 eV  139.27 nm  f=0.0112  <S**2>=0.000
      12 -> 19         0.70272

 Excited State  10:      Singlet-A"     8.9659 eV  138.28 nm  f=0.0449  <S**2>=0.000
      11 -> 15         0.68756

 Excited State  11:      Singlet-A'     8.9806 eV  138.06 nm  f=0.0293  <S**2>=0.000
      11 -> 14         0.69729

 Excited State  12:      Singlet-A"     9.1661 eV  135.26 nm  f=0.0126  <S**2>=0.000
       9 -> 13         0.69705

 Excited State  13:      Singlet-A'     9.2863 eV  133.51 nm  f=0.0142  <S**2>=0.000
      10 -> 15         0.64660
      12 -> 20        -0.27963

 Excited State  14:      Singlet-A"     9.2925 eV  133.42 nm  f=0.0568  <S**2>=0.000
      10 -> 14         0.69224

 Excited State  15:      Singlet-A'     9.3355 eV  132.81 nm  f=0.0348  <S**2>=0.000
      10 -> 15         0.27097
      12 -> 20         0.64109

 Excited State  16:      Singlet-A'     9.7189 eV  127.57 nm  f=0.0182  <S**2>=0.000
      11 -> 16         0.70229

 Excited State  17:      Singlet-A"     9.8721 eV  125.59 nm  f=0.0077  <S**2>=0.000
       9 -> 14         0.69824

 Excited State  18:      Singlet-A'     9.9450 eV  124.67 nm  f=0.0714  <S**2>=0.000
       9 -> 15         0.70488

 Excited State  19:      Singlet-A"    10.0071 eV  123.90 nm  f=0.0011  <S**2>=0.000
      10 -> 16         0.63098
      11 -> 17        -0.13797
      12 -> 21         0.28403

 Excited State  20:      Singlet-A"    10.0444 eV  123.44 nm  f=0.0020  <S**2>=0.000
      10 -> 16        -0.28386
      12 -> 21         0.63338

 Excited State  21:      Singlet-A"    10.2569 eV  120.88 nm  f=0.0011  <S**2>=0.000
      12 -> 22         0.70034

 Excited State  22:      Singlet-A'    10.4750 eV  118.36 nm  f=0.0011  <S**2>=0.000
      10 -> 17        -0.12829
      12 -> 23         0.65996
      12 -> 24        -0.19473

 Excited State  23:      Singlet-A"    10.7454 eV  115.38 nm  f=0.2095  <S**2>=0.000
       9 -> 16         0.63287
      11 -> 17        -0.27543

 Excited State  24:      Singlet-A'    10.7755 eV  115.06 nm  f=0.0363  <S**2>=0.000
      10 -> 17        -0.29611
      11 -> 18         0.44356
      12 -> 24         0.44336

 Excited State  25:      Singlet-A'    10.8706 eV  114.05 nm  f=0.0123  <S**2>=0.000
      10 -> 17         0.18406
      11 -> 18         0.54021
      12 -> 24        -0.39829

 Excited State  26:      Singlet-A"    10.8923 eV  113.83 nm  f=0.0320  <S**2>=0.000
       9 -> 16         0.28064
      11 -> 17         0.57485
      11 -> 19        -0.15330
      12 -> 26        -0.11388

 Excited State  27:      Singlet-A"    11.1185 eV  111.51 nm  f=0.0003  <S**2>=0.000
      10 -> 18         0.70108

 Excited State  28:      Singlet-A'    11.2109 eV  110.59 nm  f=0.0116  <S**2>=0.000
       9 -> 17         0.22803
      10 -> 17         0.15330
      12 -> 25         0.63510

 Excited State  29:      Singlet-A'    11.2651 eV  110.06 nm  f=0.0012  <S**2>=0.000
       9 -> 17         0.59382
      10 -> 17         0.17880
      11 -> 20         0.10413
      12 -> 24         0.10413
      12 -> 25        -0.28588

 Excited State  30:      Singlet-A"    11.2714 eV  110.00 nm  f=0.0077  <S**2>=0.000
      11 -> 17         0.11005
      11 -> 19         0.68331

 Excited State  31:      Singlet-A'    11.3916 eV  108.84 nm  f=0.0269  <S**2>=0.000
       9 -> 17        -0.28905
      10 -> 17         0.39812
      11 -> 20         0.36125
      12 -> 23         0.12656
      12 -> 24         0.18989
      12 -> 27         0.20475

 Excited State  32:      Singlet-A'    11.5740 eV  107.12 nm  f=0.0071  <S**2>=0.000
       8 -> 13         0.20990
      10 -> 19         0.66983

 Excited State  33:      Singlet-A'    11.6448 eV  106.47 nm  f=0.0305  <S**2>=0.000
       8 -> 13         0.66447
      10 -> 19        -0.20137

 Excited State  34:      Singlet-A"    11.8035 eV  105.04 nm  f=0.0024  <S**2>=0.000
       9 -> 18         0.69768

 Excited State  35:      Singlet-A"    11.8610 eV  104.53 nm  f=0.0410  <S**2>=0.000
      10 -> 20         0.16529
      12 -> 26         0.66084

 Excited State  36:      Singlet-A'    11.9266 eV  103.96 nm  f=0.0114  <S**2>=0.000
       9 -> 19        -0.20651
      10 -> 17        -0.17430
      11 -> 20         0.50640
      12 -> 23        -0.10500
      12 -> 24        -0.14195
      12 -> 27        -0.29595

 Excited State  37:      Singlet-A"    11.9494 eV  103.76 nm  f=0.0087  <S**2>=0.000
      10 -> 20         0.68054
      12 -> 26        -0.13839

 Excited State  38:      Singlet-A'    12.2309 eV  101.37 nm  f=0.0356  <S**2>=0.000
       8 -> 14        -0.42906
       9 -> 19         0.10542
      10 -> 17        -0.14417
      10 -> 21        -0.11425
      11 -> 20         0.11380
      12 -> 27         0.43628
      12 -> 28         0.19026

 Excited State  39:      Singlet-A'    12.3201 eV  100.64 nm  f=0.0254  <S**2>=0.000
       7 -> 13         0.11369
       8 -> 14        -0.26482
       9 -> 19         0.52092
      10 -> 21         0.21702
      12 -> 27        -0.25018

 Excited State  40:      Singlet-A"    12.3835 eV  100.12 nm  f=0.0590  <S**2>=0.000
       8 -> 15         0.66309
      11 -> 21        -0.22955

 Excited State  41:      Singlet-A"    12.4141 eV   99.87 nm  f=0.0382  <S**2>=0.000
       8 -> 15         0.22585
      11 -> 21         0.64373

 Excited State  42:      Singlet-A'    12.5242 eV   99.00 nm  f=0.2254  <S**2>=0.000
       7 -> 13         0.11153
       8 -> 14         0.47326
       8 -> 16         0.11701
       9 -> 19         0.32052
      10 -> 17        -0.10653
      11 -> 20         0.12498
      11 -> 25        -0.11357
      12 -> 27         0.17589
      12 -> 28         0.19922

 Excited State  43:      Singlet-A"    12.5440 eV   98.84 nm  f=0.0131  <S**2>=0.000
       9 -> 20         0.65344
      11 -> 22         0.25919

 Excited State  44:      Singlet-A"    12.6733 eV   97.83 nm  f=0.0242  <S**2>=0.000
       9 -> 20        -0.24044
      11 -> 22         0.63439

 Excited State  45:      Singlet-A'    12.7372 eV   97.34 nm  f=0.0101  <S**2>=0.000
      10 -> 21         0.12565
      11 -> 23         0.50097
      12 -> 27         0.12500
      12 -> 28        -0.42575

 Excited State  46:      Singlet-A'    12.8087 eV   96.80 nm  f=0.0521  <S**2>=0.000
       7 -> 13        -0.22247
       8 -> 16        -0.17907
      10 -> 21         0.34279
      11 -> 23         0.32537
      12 -> 28         0.39329

 Excited State  47:      Singlet-A'    12.8637 eV   96.38 nm  f=0.0175  <S**2>=0.000
       7 -> 13        -0.27676
      10 -> 17        -0.10196
      10 -> 21         0.42517
      11 -> 23        -0.34793
      11 -> 24         0.12934
      12 -> 27         0.14133
      12 -> 28        -0.17650

 Excited State  48:      Singlet-A'    12.9498 eV   95.74 nm  f=0.0022  <S**2>=0.000
      10 -> 22         0.67641
      11 -> 24        -0.17313

 Excited State  49:      Singlet-A"    13.0134 eV   95.27 nm  f=0.0008  <S**2>=0.000
      10 -> 23         0.16416
      12 -> 29         0.67490

 Excited State  50:      Singlet-A"    13.0663 eV   94.89 nm  f=0.0111  <S**2>=0.000
      10 -> 23         0.68160
      12 -> 29        -0.15777

 Excited State  51:      Singlet-A'    13.0948 eV   94.68 nm  f=0.0620  <S**2>=0.000
       7 -> 13        -0.36819
       8 -> 16         0.39433
      10 -> 21        -0.12943
      11 -> 24         0.37951

 Excited State  52:      Singlet-A'    13.1810 eV   94.06 nm  f=0.0201  <S**2>=0.000
       7 -> 13         0.24762
       8 -> 16        -0.21552
       9 -> 21         0.21731
       9 -> 22        -0.15764
      10 -> 22         0.12960
      11 -> 24         0.50438

 Excited State  53:      Singlet-A'    13.3395 eV   92.95 nm  f=0.0290  <S**2>=0.000
       8 -> 16         0.21644
       9 -> 21         0.60852
       9 -> 22         0.22819
      11 -> 25        -0.11274

 Excited State  54:      Singlet-A"    13.4314 eV   92.31 nm  f=0.0320  <S**2>=0.000
       8 -> 17        -0.10558
      10 -> 24         0.68123

 Excited State  55:      Singlet-A'    13.5850 eV   91.27 nm  f=0.0289  <S**2>=0.000
       7 -> 13         0.15600
       7 -> 14        -0.37690
       8 -> 16         0.11667
       9 -> 22         0.13601
      10 -> 21         0.12062
      12 -> 30         0.49590

 Excited State  56:      Singlet-A'    13.6315 eV   90.95 nm  f=0.0047  <S**2>=0.000
       7 -> 14         0.41473
       9 -> 22        -0.11414
      11 -> 25        -0.31846
      12 -> 30         0.44496

 Excited State  57:      Singlet-A"    13.6717 eV   90.69 nm  f=0.0006  <S**2>=0.000
       7 -> 15        -0.14353
       8 -> 17         0.31658
       9 -> 23         0.58305
      10 -> 25         0.18043

 Excited State  58:      Singlet-A'    13.6949 eV   90.53 nm  f=0.0298  <S**2>=0.000
       7 -> 13        -0.22893
       7 -> 16        -0.19634
       8 -> 16        -0.30292
       9 -> 19         0.15617
       9 -> 21         0.15970
      10 -> 21        -0.15437
      10 -> 26         0.10601
      11 -> 20         0.10881
      11 -> 25         0.33280
      12 -> 30         0.19703

 Excited State  59:      Singlet-A"    13.7278 eV   90.32 nm  f=0.0351  <S**2>=0.000
       7 -> 15         0.67782
      10 -> 25         0.11711

 Excited State  60:      Singlet-A"    13.8214 eV   89.70 nm  f=0.0002  <S**2>=0.000
       8 -> 17         0.59860
       9 -> 23        -0.25324
       9 -> 24        -0.10344
      10 -> 25        -0.21312

 Excited State  61:      Singlet-A'    13.8230 eV   89.69 nm  f=0.1552  <S**2>=0.000
       8 -> 16        -0.16511
       8 -> 18         0.23090
       9 -> 21        -0.12956
       9 -> 22         0.53071
      10 -> 26         0.12614
      11 -> 24         0.10410
      11 -> 25        -0.22064

 Excited State  62:      Singlet-A"    13.9288 eV   89.01 nm  f=0.0261  <S**2>=0.000
       9 -> 23        -0.14515
       9 -> 24        -0.29260
      10 -> 25         0.40797
      12 -> 31         0.45628

 Excited State  63:      Singlet-A'    13.9358 eV   88.97 nm  f=0.2986  <S**2>=0.000
       7 -> 13         0.14083
       7 -> 14         0.38530
       8 -> 18         0.25224
      10 -> 21         0.13563
      11 -> 25         0.39688
      12 -> 32         0.14772

 Excited State  64:      Singlet-A"    13.9696 eV   88.75 nm  f=0.0000  <S**2>=0.000
       9 -> 24         0.34946
      10 -> 25        -0.30678
      12 -> 31         0.50911

 Excited State  65:      Singlet-A"    14.1515 eV   87.61 nm  f=0.0000  <S**2>=0.000
      11 -> 26         0.68947

 Excited State  66:      Singlet-A'    14.2760 eV   86.85 nm  f=0.0315  <S**2>=0.000
      10 -> 26         0.11859
      11 -> 27        -0.33979
      12 -> 32         0.57088

 Excited State  67:      Singlet-A"    14.3034 eV   86.68 nm  f=0.3642  <S**2>=0.000
       9 -> 23        -0.17699
       9 -> 24         0.47414
       9 -> 25         0.24221
      10 -> 25         0.31611
      10 -> 28         0.10573

 Excited State  68:      Singlet-A'    14.3661 eV   86.30 nm  f=0.0251  <S**2>=0.000
       7 -> 16         0.11046
      10 -> 26         0.36878
      11 -> 27         0.53811
      12 -> 32         0.21808

 Excited State  69:      Singlet-A'    14.3905 eV   86.16 nm  f=0.1483  <S**2>=0.000
       7 -> 14        -0.10859
       7 -> 16        -0.33290
       8 -> 18         0.47331
       9 -> 22        -0.13158
      10 -> 26        -0.23084
      11 -> 27         0.10143
      12 -> 32         0.15961

 Excited State  70:      Singlet-A"    14.5928 eV   84.96 nm  f=0.0179  <S**2>=0.000
       8 -> 19         0.11121
       9 -> 24        -0.11204
       9 -> 25         0.46173
      10 -> 27         0.49403

 Excited State  71:      Singlet-A'    14.6367 eV   84.71 nm  f=0.0463  <S**2>=0.000
       7 -> 16        -0.25171
      10 -> 26         0.41144
      11 -> 27        -0.13242
      12 -> 32        -0.13477
      12 -> 33         0.42529

 Excited State  72:      Singlet-A"    14.7044 eV   84.32 nm  f=0.0789  <S**2>=0.000
       8 -> 19         0.46355
       9 -> 25        -0.38616
      10 -> 27         0.31707

 Excited State  73:      Singlet-A'    14.7368 eV   84.13 nm  f=0.2250  <S**2>=0.000
       6 -> 15         0.13129
       7 -> 13        -0.12416
       7 -> 16         0.48041
       8 -> 18         0.30555
       9 -> 22        -0.10440
      11 -> 27        -0.12995
      12 -> 33         0.12912

 Excited State  74:      Singlet-A"    14.7773 eV   83.90 nm  f=0.0008  <S**2>=0.000
       6 -> 13         0.20237
       8 -> 19         0.48167
       9 -> 25         0.23152
      10 -> 27        -0.35526

 Excited State  75:      Singlet-A'    14.8649 eV   83.41 nm  f=0.2215  <S**2>=0.000
       7 -> 18        -0.14426
       8 -> 18        -0.14607
       8 -> 20        -0.13737
       9 -> 22         0.12822
      10 -> 26        -0.26679
      11 -> 27         0.15806
      12 -> 33         0.51596

 Excited State  76:      Singlet-A'    15.0260 eV   82.51 nm  f=0.0160  <S**2>=0.000
       8 -> 20        -0.13672
       9 -> 26         0.18594
      11 -> 28         0.64585

 Excited State  77:      Singlet-A"    15.0356 eV   82.46 nm  f=0.0447  <S**2>=0.000
       7 -> 17         0.17089
      10 -> 28        -0.10147
      12 -> 34         0.66698

 Excited State  78:      Singlet-A'    15.0567 eV   82.34 nm  f=0.0366  <S**2>=0.000
       8 -> 20         0.58789
       9 -> 26        -0.29462
      11 -> 28         0.21259

 Excited State  79:      Singlet-A"    15.1090 eV   82.06 nm  f=0.0029  <S**2>=0.000
       6 -> 13         0.20806
       7 -> 17         0.60205
       9 -> 27        -0.10257
      10 -> 28         0.19094
      11 -> 29         0.12607
      12 -> 34        -0.12440

 Excited State  80:      Singlet-A"    15.1179 eV   82.01 nm  f=0.0399  <S**2>=0.000
       6 -> 13         0.59510
       7 -> 17        -0.21471
       8 -> 19        -0.10676
       9 -> 27         0.12066
      10 -> 28         0.14652
      12 -> 34         0.12827

 Excited State  81:      Singlet-A'    15.2169 eV   81.48 nm  f=0.2559  <S**2>=0.000
       8 -> 20         0.27854
       9 -> 26         0.57606
      10 -> 29         0.15745

 Excited State  82:      Singlet-A"    15.2366 eV   81.37 nm  f=0.0039  <S**2>=0.000
       7 -> 17         0.15951
       9 -> 27         0.59979
      10 -> 28        -0.31432

 Excited State  83:      Singlet-A"    15.3389 eV   80.83 nm  f=0.0012  <S**2>=0.000
       6 -> 13        -0.12974
       7 -> 17        -0.11908
       9 -> 27         0.17049
      10 -> 28         0.34277
      11 -> 29         0.54783

 Excited State  84:      Singlet-A"    15.5517 eV   79.72 nm  f=0.1611  <S**2>=0.000
       8 -> 21         0.14361
       9 -> 27         0.22107
       9 -> 28        -0.13335
      10 -> 28         0.32668
      11 -> 29        -0.33241
      11 -> 31         0.11608
      12 -> 35         0.37237

 Excited State  85:      Singlet-A"    15.5998 eV   79.48 nm  f=0.0474  <S**2>=0.000
       6 -> 14         0.17564
       9 -> 27        -0.12472
      10 -> 28        -0.19928
      11 -> 29         0.16122
      12 -> 35         0.57586

 Excited State  86:      Singlet-A'    15.6781 eV   79.08 nm  f=0.1177  <S**2>=0.000
       6 -> 15         0.20358
       7 -> 18         0.61472
      10 -> 29         0.11022
      11 -> 30         0.11419
      12 -> 36         0.14614

 Excited State  87:      Singlet-A"    15.7978 eV   78.48 nm  f=0.0050  <S**2>=0.000
       6 -> 14         0.52473
       7 -> 19         0.10399
       8 -> 21         0.37685
       9 -> 28         0.20824

 Excited State  88:      Singlet-A"    15.8214 eV   78.36 nm  f=0.0220  <S**2>=0.000
       6 -> 14        -0.32324
       8 -> 21         0.43835
       8 -> 22         0.19700
       9 -> 28         0.19209
      11 -> 31        -0.11741
      12 -> 37         0.27894

 Excited State  89:      Singlet-A"    15.8771 eV   78.09 nm  f=0.0222  <S**2>=0.000
       8 -> 21        -0.25841
      12 -> 37         0.62478

 Excited State  90:      Singlet-A'    15.9139 eV   77.91 nm  f=0.1328  <S**2>=0.000
       5 -> 13         0.13203
       6 -> 15         0.15723
       7 -> 18        -0.22363
       7 -> 20         0.14127
      10 -> 29         0.46559
      11 -> 30         0.13080
      12 -> 36         0.32973

 Excited State  91:      Singlet-A"    15.9456 eV   77.75 nm  f=0.0370  <S**2>=0.000
       6 -> 14        -0.12260
       8 -> 21        -0.19096
       9 -> 28         0.61759
      12 -> 37        -0.14092

 Excited State  92:      Singlet-A'    15.9652 eV   77.66 nm  f=0.0216  <S**2>=0.000
      10 -> 29        -0.14348
      11 -> 30         0.65952

 Excited State  93:      Singlet-A'    16.0152 eV   77.42 nm  f=0.0200  <S**2>=0.000
       5 -> 13         0.11529
       5 -> 14        -0.16952
       6 -> 15         0.52566
      10 -> 29        -0.28455
      11 -> 30        -0.13850
      12 -> 36         0.11709

 Excited State  94:      Singlet-A"    16.0554 eV   77.22 nm  f=0.0199  <S**2>=0.000
       7 -> 19         0.64746
       8 -> 22         0.16352
      11 -> 31        -0.17866

 Excited State  95:      Singlet-A'    16.0784 eV   77.11 nm  f=0.0950  <S**2>=0.000
       5 -> 13        -0.44883
      10 -> 29        -0.18127
      12 -> 36         0.46397

 Excited State  96:      Singlet-A"    16.1393 eV   76.82 nm  f=0.0077  <S**2>=0.000
       8 -> 21        -0.10197
       8 -> 22         0.59102
      10 -> 30        -0.23340
      11 -> 31         0.20242

 Excited State  97:      Singlet-A'    16.1770 eV   76.64 nm  f=0.0684  <S**2>=0.000
       5 -> 13        -0.15466
       8 -> 23         0.65912

 Excited State  98:      Singlet-A'    16.2771 eV   76.17 nm  f=0.0019  <S**2>=0.000
       5 -> 13         0.38575
       6 -> 15        -0.17522
       7 -> 20        -0.34037
       8 -> 23         0.19665
      10 -> 29        -0.11649
      10 -> 31        -0.10422
      12 -> 36         0.30228
      12 -> 38         0.11279

 Excited State  99:      Singlet-A"    16.2847 eV   76.14 nm  f=0.0030  <S**2>=0.000
       8 -> 22         0.11238
      10 -> 30         0.59828
      11 -> 31         0.29460
      12 -> 39         0.19184

 Excited State 100:      Singlet-A'    16.3386 eV   75.88 nm  f=0.0019  <S**2>=0.000
       9 -> 29        -0.17216
      12 -> 38         0.66641

 Excited State 101:      Singlet-A'    16.3683 eV   75.75 nm  f=0.0194  <S**2>=0.000
       9 -> 29         0.64978
      12 -> 38         0.16667

 Excited State 102:      Singlet-A"    16.4118 eV   75.55 nm  f=0.0271  <S**2>=0.000
      10 -> 30        -0.15867
      12 -> 39         0.66464

 Excited State 103:      Singlet-A'    16.4509 eV   75.37 nm  f=0.0344  <S**2>=0.000
       5 -> 13         0.15325
       7 -> 20         0.47346
       8 -> 24        -0.10564
      10 -> 29        -0.10385
      10 -> 31        -0.30837
      11 -> 32         0.32489

 Excited State 104:      Singlet-A"    16.5173 eV   75.06 nm  f=0.0176  <S**2>=0.000
       5 -> 15         0.27357
       6 -> 16        -0.21941
       7 -> 19         0.13051
       7 -> 21        -0.13042
       8 -> 22        -0.11981
      10 -> 30        -0.17055
      10 -> 32         0.20784
      11 -> 31         0.43629

 Excited State 105:      Singlet-A'    16.5421 eV   74.95 nm  f=0.0043  <S**2>=0.000
       8 -> 24         0.12588
      10 -> 31        -0.11173
      12 -> 40         0.67503

 Excited State 106:      Singlet-A'    16.5693 eV   74.83 nm  f=0.0058  <S**2>=0.000
       5 -> 14         0.14025
       8 -> 24         0.47842
      10 -> 31        -0.35595
      11 -> 32        -0.27129
      12 -> 40        -0.16359

 Excited State 107:      Singlet-A"    16.5831 eV   74.77 nm  f=0.0009  <S**2>=0.000
       5 -> 15         0.15418
       6 -> 16         0.64189
       9 -> 30         0.14061
      11 -> 31         0.11399

 Excited State 108:      Singlet-A'    16.6140 eV   74.63 nm  f=0.1032  <S**2>=0.000
       8 -> 24         0.43597
      10 -> 31         0.25730
      11 -> 32         0.45320

 The electronic state is 1-A'.
 Alpha  occ. eigenvalues --  -14.01723  -9.95089  -9.95077  -0.86910  -0.58421
 Alpha  occ. eigenvalues --   -0.54488  -0.46862  -0.41923  -0.32910  -0.30621
 Alpha  occ. eigenvalues --   -0.29428  -0.20818
 Alpha virt. eigenvalues --    0.00515   0.03149   0.03290   0.06030   0.08096
 Alpha virt. eigenvalues --    0.10192   0.11901   0.13151   0.16068   0.16861
 Alpha virt. eigenvalues --    0.17391   0.18527   0.20318   0.22535   0.23122

 Mulliken charges:
               1
     1  C    0.906292
     2  C    0.906292
     3  N   -0.263081
     4  H   -0.409440
     5  H   -0.320423
     6  H   -0.320423
     7  H   -0.409440
     8  H   -0.089778
 Sum of Mulliken charges =  -0.00000

 Dipole moment (field-independent basis, Debye):
    X=             -1.2705    Y=             -1.0167    Z=              0.0000  Tot=              1.6272
 Quadrupole moment (field-independent basis, Debye-Ang):
   XX=            -18.1794   YY=            -21.5394   ZZ=            -19.0645
   XY=             -2.1086   XZ=              0.0000   YZ=              0.0000

 Normal termination of Gaussian 16 at Mon Mar 21 19:59:19 2022.
