 Gaussian 16, Revision C.01,
 Gaussian 16:  EM64L-G16RevC.01  3-Jul-2019

 --------------------------------------------------------------------
 #P TD(Nstates=10000) blyp/Gen SCF(maxcycles=100) Int(Grid=ultrafine)
 --------------------------------------------------------------------

 ---------------------
 xGDB7_00001_tier4.com
 ---------------------
 Symbolic Z-matrix:
 Charge =  0 Multiplicity = 1

                         Standard orientation:
 ---------------------------------------------------------------------
 Center     Atomic      Atomic             Coordinates (Angstroms)
 Number     Number       Type             X           Y           Z
 ---------------------------------------------------------------------
      1          6           0        0.000284   -0.018657   -1.236532
      2          6           0       -0.000055    0.003295    0.218717
      3          6           0       -0.000323    0.021367    1.415619
      4          1           0        0.273656    0.958689   -1.636635
      5          1           0       -0.987794   -0.279414   -1.618263
      6          1           0        0.715256   -0.752703   -1.610700
      7          1           0       -0.000556    0.037402    2.478776
 ---------------------------------------------------------------------

 SCF Done:  E(RB-LYP) =  -116.514758291     A.U. after   13 cycles

 Excitation energies and oscillator strengths:

 Excited State   1:      Singlet-A      6.5068 eV  190.54 nm  f=0.0040  <S**2>=0.000
      11 -> 12         0.70348
 This state for optimization and/or second-order correction.
 Total Energy, E(TD-HF/TD-DFT) =  -116.275636760
 Copying the excited state density for this state as the 1-particle RhoCI density.

 Excited State   2:      Singlet-A      6.5068 eV  190.54 nm  f=0.0040  <S**2>=0.000
      10 -> 12         0.70348

 Excited State   3:      Singlet-A      6.7464 eV  183.78 nm  f=0.0000  <S**2>=0.000
      10 -> 13        -0.30488
      10 -> 14         0.39626
      11 -> 13         0.39635
      11 -> 14         0.30485

 Excited State   4:      Singlet-A      6.8582 eV  180.78 nm  f=0.0010  <S**2>=0.000
      10 -> 13        -0.30386
      10 -> 14         0.39669
      11 -> 13        -0.39665
      11 -> 14        -0.30383

 Excited State   5:      Singlet-A      6.8582 eV  180.78 nm  f=0.0010  <S**2>=0.000
      10 -> 13         0.39664
      10 -> 14         0.30388
      11 -> 13        -0.30382
      11 -> 14         0.39669

 Excited State   6:      Singlet-A      7.5155 eV  164.97 nm  f=0.0328  <S**2>=0.000
      10 -> 15        -0.16508
      11 -> 15         0.68698

 Excited State   7:      Singlet-A      7.5155 eV  164.97 nm  f=0.0327  <S**2>=0.000
      10 -> 15         0.68698
      11 -> 15         0.16508

 Excited State   8:      Singlet-A      8.2253 eV  150.74 nm  f=0.0389  <S**2>=0.000
      10 -> 16        -0.20229
      11 -> 16         0.67553

 Excited State   9:      Singlet-A      8.2253 eV  150.73 nm  f=0.0389  <S**2>=0.000
      10 -> 16         0.67553
      11 -> 16         0.20229

 Excited State  10:      Singlet-A      8.5955 eV  144.24 nm  f=0.3698  <S**2>=0.000
      10 -> 13         0.25505
      10 -> 14         0.19628
      10 -> 17         0.34894
      10 -> 18        -0.13860
      11 -> 13         0.19628
      11 -> 14        -0.25505
      11 -> 17        -0.13860
      11 -> 18        -0.34893

 Excited State  11:      Singlet-A      8.9659 eV  138.28 nm  f=0.0000  <S**2>=0.000
      10 -> 17         0.18462
      10 -> 18         0.46409
      11 -> 17         0.46521
      11 -> 18        -0.18452

 Excited State  12:      Singlet-A      8.9761 eV  138.13 nm  f=0.0028  <S**2>=0.000
      10 -> 17         0.49692
      11 -> 18         0.49699

 Excited State  13:      Singlet-A      8.9761 eV  138.13 nm  f=0.0028  <S**2>=0.000
      10 -> 18         0.49747
      11 -> 17        -0.49644

 Excited State  14:      Singlet-A      9.7672 eV  126.94 nm  f=0.0000  <S**2>=0.000
      10 -> 19         0.49989
      11 -> 20        -0.49988

 Excited State  15:      Singlet-A      9.8167 eV  126.30 nm  f=0.0403  <S**2>=0.000
      10 -> 17        -0.11152
      10 -> 20         0.46260
      11 -> 18         0.11152
      11 -> 19         0.46264

 Excited State  16:      Singlet-A      9.8464 eV  125.92 nm  f=0.0000  <S**2>=0.000
      10 -> 19         0.27267
      10 -> 20         0.39387
      10 -> 21         0.17244
      11 -> 19        -0.39369
      11 -> 20         0.27268

 Excited State  17:      Singlet-A      9.8464 eV  125.92 nm  f=0.0000  <S**2>=0.000
      10 -> 19         0.39376
      10 -> 20        -0.27257
      11 -> 19         0.27277
      11 -> 20         0.39377
      11 -> 21        -0.17252

 Excited State  18:      Singlet-A      9.9950 eV  124.05 nm  f=0.0238  <S**2>=0.000
      10 -> 19         0.12805
      10 -> 21         0.13376
      11 -> 20         0.12806
      11 -> 21         0.66245

 Excited State  19:      Singlet-A      9.9950 eV  124.05 nm  f=0.0238  <S**2>=0.000
      10 -> 20        -0.12785
      10 -> 21         0.66247
      11 -> 19         0.12817
      11 -> 21        -0.13377

 Excited State  20:      Singlet-A     10.0096 eV  123.87 nm  f=0.7507  <S**2>=0.000
       8 -> 14         0.13473
       9 -> 13         0.13475
      10 -> 13        -0.23697
      10 -> 14        -0.18222
      10 -> 17         0.26408
      10 -> 18        -0.10491
      10 -> 20         0.17720
      11 -> 13        -0.18222
      11 -> 14         0.23697
      11 -> 17        -0.10490
      11 -> 18        -0.26405
      11 -> 19         0.17688

 Excited State  21:      Singlet-A     10.7330 eV  115.52 nm  f=0.0970  <S**2>=0.000
       9 -> 12         0.69848

 Excited State  22:      Singlet-A     10.7331 eV  115.52 nm  f=0.0970  <S**2>=0.000
       8 -> 12         0.69847

 Excited State  23:      Singlet-A     10.8615 eV  114.15 nm  f=0.0000  <S**2>=0.000
       8 -> 13        -0.41761
       8 -> 14         0.27474
       9 -> 13         0.27491
       9 -> 14         0.41778

 Excited State  24:      Singlet-A     11.0206 eV  112.50 nm  f=0.0192  <S**2>=0.000
       7 -> 13         0.12431
       8 -> 13        -0.21171
       8 -> 14        -0.43574
       9 -> 13         0.43576
       9 -> 14        -0.21181

 Excited State  25:      Singlet-A     11.0206 eV  112.50 nm  f=0.0192  <S**2>=0.000
       7 -> 14        -0.12432
       8 -> 13         0.43585
       8 -> 14        -0.21183
       9 -> 13         0.21170
       9 -> 14         0.43564

 Excited State  26:      Singlet-A     11.1008 eV  111.69 nm  f=0.0032  <S**2>=0.000
      10 -> 22         0.49054
      11 -> 23         0.49056

 Excited State  27:      Singlet-A     11.1008 eV  111.69 nm  f=0.0032  <S**2>=0.000
      10 -> 23        -0.49041
      11 -> 22         0.49069

 Excited State  28:      Singlet-A     11.1338 eV  111.36 nm  f=0.0000  <S**2>=0.000
      10 -> 22         0.10811
      10 -> 23         0.48828
      11 -> 22         0.48798
      11 -> 23        -0.10803

 Excited State  29:      Singlet-A     11.2309 eV  110.40 nm  f=0.0339  <S**2>=0.000
       7 -> 12         0.69835

 Excited State  30:      Singlet-A     11.4180 eV  108.59 nm  f=0.0015  <S**2>=0.000
       7 -> 13         0.13404
       7 -> 14        -0.41116
      10 -> 24        -0.18425
      11 -> 24         0.51995

 Excited State  31:      Singlet-A     11.4181 eV  108.59 nm  f=0.0015  <S**2>=0.000
       7 -> 13         0.41116
       7 -> 14         0.13406
      10 -> 24         0.51993
      11 -> 24         0.18426

 Excited State  32:      Singlet-A     11.6268 eV  106.64 nm  f=0.0087  <S**2>=0.000
       9 -> 15         0.70582

 Excited State  33:      Singlet-A     11.6269 eV  106.64 nm  f=0.0087  <S**2>=0.000
       8 -> 15         0.70582

 Excited State  34:      Singlet-A     11.6667 eV  106.27 nm  f=0.0239  <S**2>=0.000
       8 -> 13         0.22797
       8 -> 14         0.34653
       9 -> 13         0.34646
       9 -> 14        -0.22795
      10 -> 22         0.12904
      10 -> 25         0.11433
      10 -> 28         0.11212
      11 -> 23        -0.12904
      11 -> 26        -0.11431
      11 -> 27         0.11213

 Excited State  35:      Singlet-A     11.8201 eV  104.89 nm  f=0.0100  <S**2>=0.000
       7 -> 13         0.53265
      10 -> 24        -0.34477
      11 -> 24        -0.25973

 Excited State  36:      Singlet-A     11.8201 eV  104.89 nm  f=0.0100  <S**2>=0.000
       7 -> 14         0.53264
      10 -> 24        -0.25974
      11 -> 24         0.34475

 Excited State  37:      Singlet-A     12.0354 eV  103.02 nm  f=0.1565  <S**2>=0.000
       7 -> 15         0.45019
      10 -> 22         0.33097
      11 -> 23        -0.33097

 Excited State  38:      Singlet-A     12.2933 eV  100.86 nm  f=0.0011  <S**2>=0.000
       9 -> 16         0.70332

 Excited State  39:      Singlet-A     12.2934 eV  100.85 nm  f=0.0011  <S**2>=0.000
       8 -> 16         0.70332

 Excited State  40:      Singlet-A     12.3455 eV  100.43 nm  f=0.0194  <S**2>=0.000
       6 -> 12        -0.10837
       6 -> 15        -0.11777
       7 -> 15         0.52672
       8 -> 14         0.10001
      10 -> 22        -0.24732
      11 -> 23         0.24731

 Excited State  41:      Singlet-A     12.8796 eV   96.26 nm  f=0.0064  <S**2>=0.000
       6 -> 12         0.65452
       7 -> 16        -0.20241

 Excited State  42:      Singlet-A     12.8965 eV   96.14 nm  f=0.0000  <S**2>=0.000
      10 -> 26         0.49364
      11 -> 25         0.49369

 Excited State  43:      Singlet-A     12.9292 eV   95.89 nm  f=0.1795  <S**2>=0.000
       6 -> 12         0.21014
       7 -> 16         0.63058
      10 -> 25         0.13382
      11 -> 26        -0.13380

 Excited State  44:      Singlet-A     12.9685 eV   95.60 nm  f=0.0015  <S**2>=0.000
       7 -> 16        -0.21095
      10 -> 25         0.41383
      10 -> 28        -0.19375
      11 -> 26        -0.41382
      11 -> 27        -0.19376

 Excited State  45:      Singlet-A     13.0851 eV   94.75 nm  f=0.0000  <S**2>=0.000
       8 -> 18         0.49902
       9 -> 17         0.49993

 Excited State  46:      Singlet-A     13.1127 eV   94.55 nm  f=0.0111  <S**2>=0.000
       6 -> 13        -0.28761
       8 -> 17         0.22382
       9 -> 18         0.22382
      10 -> 25         0.33578
      10 -> 26         0.18201
      11 -> 25        -0.18198
      11 -> 26         0.33580

 Excited State  47:      Singlet-A     13.1128 eV   94.55 nm  f=0.0111  <S**2>=0.000
       6 -> 14         0.28761
       8 -> 18         0.22431
       9 -> 17        -0.22334
      10 -> 25        -0.18200
      10 -> 26         0.33580
      11 -> 25        -0.33579
      11 -> 26        -0.18198

 Excited State  48:      Singlet-A     13.1822 eV   94.05 nm  f=0.0729  <S**2>=0.000
       6 -> 13         0.18168
       8 -> 17         0.42417
       9 -> 18         0.42419
      10 -> 25        -0.11242
      10 -> 26        -0.12395
      11 -> 25         0.12393
      11 -> 26        -0.11242

 Excited State  49:      Singlet-A     13.1822 eV   94.05 nm  f=0.0729  <S**2>=0.000
       6 -> 14        -0.18167
       8 -> 18         0.42443
       9 -> 17        -0.42393
      10 -> 25         0.12393
      10 -> 26        -0.11243
      11 -> 25         0.11242
      11 -> 26         0.12394

 Excited State  50:      Singlet-A     13.3341 eV   92.98 nm  f=0.0056  <S**2>=0.000
       6 -> 13        -0.25283
       6 -> 14         0.20095
      10 -> 27         0.44182
      11 -> 28         0.44171

 Excited State  51:      Singlet-A     13.3341 eV   92.98 nm  f=0.0056  <S**2>=0.000
       6 -> 13        -0.20096
       6 -> 14        -0.25279
      10 -> 28        -0.44174
      11 -> 27         0.44183

 Excited State  52:      Singlet-A     13.3675 eV   92.75 nm  f=0.0000  <S**2>=0.000
      10 -> 27        -0.43994
      10 -> 28        -0.22648
      11 -> 27        -0.22627
      11 -> 28         0.44008

 Excited State  53:      Singlet-A     13.4797 eV   91.98 nm  f=0.0042  <S**2>=0.000
       6 -> 13        -0.11971
       7 -> 18         0.14179
      10 -> 29         0.31240
      11 -> 29         0.58894

 Excited State  54:      Singlet-A     13.4797 eV   91.98 nm  f=0.0042  <S**2>=0.000
       6 -> 14        -0.11984
       7 -> 17        -0.14181
      10 -> 29         0.58889
      11 -> 29        -0.31234

 Excited State  55:      Singlet-A     13.6382 eV   90.91 nm  f=0.0126  <S**2>=0.000
       7 -> 17         0.68362
      10 -> 29         0.14274

 Excited State  56:      Singlet-A     13.6382 eV   90.91 nm  f=0.0126  <S**2>=0.000
       7 -> 18         0.68362
      11 -> 29        -0.14270

 Excited State  57:      Singlet-A     13.8238 eV   89.69 nm  f=0.0039  <S**2>=0.000
       8 -> 17         0.28236
       8 -> 19        -0.12979
       8 -> 20         0.36844
       9 -> 18        -0.28236
       9 -> 19         0.36867
       9 -> 20         0.12986

 Excited State  58:      Singlet-A     13.8795 eV   89.33 nm  f=0.0000  <S**2>=0.000
       8 -> 19        -0.47129
       8 -> 20        -0.16602
       9 -> 19        -0.16612
       9 -> 20         0.47161

 Excited State  59:      Singlet-A     13.9304 eV   89.00 nm  f=0.1695  <S**2>=0.000
       6 -> 15         0.42092
       7 -> 21         0.14576
       8 -> 17        -0.15871
       9 -> 18         0.15868
      10 -> 25        -0.11039
      10 -> 27         0.14022
      10 -> 28        -0.27258
      11 -> 26         0.11035
      11 -> 27        -0.27259
      11 -> 28        -0.14025

 Excited State  60:      Singlet-A     13.9490 eV   88.88 nm  f=0.0669  <S**2>=0.000
       6 -> 13         0.35000
       6 -> 14        -0.12235
       8 -> 19        -0.15014
       8 -> 20         0.25670
       9 -> 19        -0.25658
       9 -> 20        -0.14999
       9 -> 21        -0.14139
      10 -> 25         0.12804
      10 -> 26         0.12956
      10 -> 27         0.13372
      11 -> 25        -0.12955
      11 -> 26         0.12810
      11 -> 28         0.13364
      11 -> 29         0.10467

 Excited State  61:      Singlet-A     13.9490 eV   88.88 nm  f=0.0670  <S**2>=0.000
       6 -> 13         0.12240
       6 -> 14         0.35002
       8 -> 19         0.25679
       8 -> 20         0.15009
       8 -> 21        -0.14137
       9 -> 19        -0.14991
       9 -> 20         0.25643
      10 -> 25         0.12959
      10 -> 26        -0.12808
      10 -> 28        -0.13361
      10 -> 29         0.10487
      11 -> 25         0.12805
      11 -> 26         0.12958
      11 -> 27         0.13362

 Excited State  62:      Singlet-A     14.0936 eV   87.97 nm  f=0.0283  <S**2>=0.000
       6 -> 13         0.15700
       6 -> 14        -0.10520
       9 -> 21         0.62875

 Excited State  63:      Singlet-A     14.0937 eV   87.97 nm  f=0.0283  <S**2>=0.000
       6 -> 13         0.10512
       6 -> 14         0.15693
       8 -> 21         0.62884

 Excited State  64:      Singlet-A     14.1924 eV   87.36 nm  f=0.0315  <S**2>=0.000
       6 -> 15         0.35334
       6 -> 16         0.25122
       8 -> 17         0.24681
       8 -> 20        -0.22551
       9 -> 18        -0.24679
       9 -> 19        -0.22551
      10 -> 31        -0.10306
      11 -> 30        -0.10308

 Excited State  65:      Singlet-A     14.4354 eV   85.89 nm  f=0.0250  <S**2>=0.000
       6 -> 15         0.29701
       7 -> 21        -0.14521
       7 -> 24         0.13055
       8 -> 17        -0.19239
       8 -> 20         0.16554
       9 -> 18         0.19237
       9 -> 19         0.16553
      10 -> 28         0.17884
      10 -> 30        -0.12721
      10 -> 31        -0.18443
      11 -> 27         0.17883
      11 -> 30        -0.18446
      11 -> 31         0.12718

 Excited State  66:      Singlet-A     14.4764 eV   85.65 nm  f=0.0092  <S**2>=0.000
       7 -> 19         0.67541
       7 -> 20         0.20153

 Excited State  67:      Singlet-A     14.4764 eV   85.65 nm  f=0.0091  <S**2>=0.000
       7 -> 19        -0.20153
       7 -> 20         0.67541

 Excited State  68:      Singlet-A     14.6061 eV   84.89 nm  f=0.4438  <S**2>=0.000
       6 -> 13        -0.17522
       8 -> 20         0.30879
       8 -> 21         0.18028
       9 -> 19        -0.30866
       9 -> 21         0.15080
      10 -> 25        -0.10808
      10 -> 31         0.13428
      10 -> 32        -0.22996
      10 -> 34        -0.14090
      11 -> 26        -0.10805
      11 -> 30        -0.13426

 Excited State  69:      Singlet-A     14.6061 eV   84.89 nm  f=0.4438  <S**2>=0.000
       6 -> 14        -0.17522
       8 -> 19         0.30879
       8 -> 21         0.15073
       9 -> 20         0.30866
       9 -> 21        -0.18042
      10 -> 26         0.10806
      10 -> 30         0.13420
      11 -> 25        -0.10806
      11 -> 31         0.13417
      11 -> 32         0.22995
      11 -> 34         0.14090

 Excited State  70:      Singlet-A     14.6356 eV   84.71 nm  f=0.0178  <S**2>=0.000
       6 -> 16         0.50043
       7 -> 21        -0.43474
      10 -> 31         0.10027
      11 -> 30         0.10023

 Excited State  71:      Singlet-A     14.8174 eV   83.67 nm  f=0.0000  <S**2>=0.000
      10 -> 30         0.41192
      10 -> 31        -0.28353
      11 -> 30        -0.28410
      11 -> 31        -0.41118

 Excited State  72:      Singlet-A     14.8429 eV   83.53 nm  f=0.0079  <S**2>=0.000
       8 -> 19        -0.11109
       9 -> 20        -0.11105
      10 -> 30         0.45683
      10 -> 31        -0.10009
      11 -> 30         0.10042
      11 -> 31         0.45735

 Excited State  73:      Singlet-A     14.8429 eV   83.53 nm  f=0.0079  <S**2>=0.000
       8 -> 20        -0.11110
       9 -> 19         0.11107
      10 -> 31         0.45727
      11 -> 30        -0.45684
      11 -> 31         0.10058

 Excited State  74:      Singlet-A     14.9644 eV   82.85 nm  f=0.1521  <S**2>=0.000
       6 -> 18         0.13383
      10 -> 32         0.13080
      11 -> 32         0.61658
      11 -> 34        -0.14190

 Excited State  75:      Singlet-A     14.9644 eV   82.85 nm  f=0.1521  <S**2>=0.000
       6 -> 17        -0.13383
      10 -> 32         0.61659
      10 -> 34        -0.14189
      11 -> 32        -0.13083

 Excited State  76:      Singlet-A     15.2036 eV   81.55 nm  f=0.0033  <S**2>=0.000
       6 -> 15        -0.17272
       6 -> 16         0.21275
       7 -> 21         0.21507
       7 -> 24        -0.10782
       8 -> 22        -0.30647
       9 -> 23         0.30720
      10 -> 30        -0.14709
      10 -> 31        -0.21331
      11 -> 30        -0.21327
      11 -> 31         0.14710

 Excited State  77:      Singlet-A     15.2411 eV   81.35 nm  f=0.0188  <S**2>=0.000
       8 -> 23        -0.41477
       9 -> 22         0.42014
      10 -> 33         0.29904
      11 -> 33         0.20909

 Excited State  78:      Singlet-A     15.2412 eV   81.35 nm  f=0.0188  <S**2>=0.000
       8 -> 22         0.41739
       9 -> 23         0.41762
      10 -> 33        -0.20871
      11 -> 33         0.29922

 Excited State  79:      Singlet-A     15.2501 eV   81.30 nm  f=0.0000  <S**2>=0.000
       8 -> 23         0.49716
       9 -> 22         0.49611

 Excited State  80:      Singlet-A     15.2544 eV   81.28 nm  f=0.0000  <S**2>=0.000
       8 -> 22        -0.19678
       8 -> 23         0.16879
       9 -> 22        -0.16404
       9 -> 23        -0.19667
      11 -> 33         0.60399

 Excited State  81:      Singlet-A     15.2544 eV   81.28 nm  f=0.0000  <S**2>=0.000
       8 -> 22         0.16546
       8 -> 23         0.19904
       9 -> 22        -0.19421
       9 -> 23         0.16681
      10 -> 33         0.60421

 Excited State  82:      Singlet-A     15.2617 eV   81.24 nm  f=0.0181  <S**2>=0.000
       6 -> 16         0.32013
       7 -> 21         0.39469
       8 -> 22         0.25339
       9 -> 23        -0.25156

 Excited State  83:      Singlet-A     15.3816 eV   80.61 nm  f=0.0002  <S**2>=0.000
       6 -> 17         0.53001
       6 -> 18         0.12491
      10 -> 34        -0.36429
      11 -> 34         0.25438

 Excited State  84:      Singlet-A     15.3816 eV   80.61 nm  f=0.0002  <S**2>=0.000
       6 -> 17        -0.12492
       6 -> 18         0.53000
      10 -> 34         0.25437
      11 -> 34         0.36431

 Excited State  85:      Singlet-A     15.5781 eV   79.59 nm  f=0.0275  <S**2>=0.000
       6 -> 18        -0.33095
       7 -> 23         0.22071
       9 -> 24        -0.25106
      11 -> 34         0.40773
      11 -> 35         0.23382

 Excited State  86:      Singlet-A     15.5781 eV   79.59 nm  f=0.0276  <S**2>=0.000
       6 -> 17         0.33105
       7 -> 22        -0.22099
       8 -> 24        -0.25032
      10 -> 34         0.40789
      10 -> 35         0.23380

 Excited State  87:      Singlet-A     15.6068 eV   79.44 nm  f=0.0408  <S**2>=0.000
       6 -> 18        -0.10577
       7 -> 23         0.23782
       9 -> 24         0.61388
      11 -> 34         0.13526

 Excited State  88:      Singlet-A     15.6069 eV   79.44 nm  f=0.0407  <S**2>=0.000
       6 -> 17         0.10535
       7 -> 22        -0.23761
       8 -> 24         0.61417
      10 -> 34         0.13480

 Excited State  89:      Singlet-A     15.6727 eV   79.11 nm  f=0.0192  <S**2>=0.000
       6 -> 15        -0.12347
       6 -> 21        -0.11062
       7 -> 21        -0.15986
       8 -> 22         0.28508
       9 -> 23        -0.28502
      10 -> 28        -0.10473
      10 -> 30        -0.16163
      10 -> 31        -0.23441
      11 -> 27        -0.10474
      11 -> 30        -0.23438
      11 -> 31         0.16165

 Excited State  90:      Singlet-A     15.7091 eV   78.93 nm  f=0.0438  <S**2>=0.000
       7 -> 22        -0.11040
       7 -> 23        -0.15922
       8 -> 24        -0.10448
       9 -> 24         0.11864
      10 -> 35        -0.24486
      11 -> 35         0.59822

 Excited State  91:      Singlet-A     15.7091 eV   78.93 nm  f=0.0438  <S**2>=0.000
       7 -> 22         0.15922
       7 -> 23        -0.11044
       8 -> 24         0.11873
       9 -> 24         0.10439
      10 -> 35         0.59820
      11 -> 35         0.24487

 The electronic state is 1-A.
 Alpha  occ. eigenvalues --   -9.94771  -9.92436  -9.91141  -0.69639  -0.62316
 Alpha  occ. eigenvalues --   -0.46754  -0.40471  -0.38519  -0.38519  -0.23401
 Alpha  occ. eigenvalues --   -0.23401
 Alpha virt. eigenvalues --    0.00409   0.01393   0.01393   0.04151   0.06576
 Alpha virt. eigenvalues --    0.09563   0.09563   0.12652   0.12652   0.13142
 Alpha virt. eigenvalues --    0.17533   0.17533   0.18271   0.24539   0.24539

 Mulliken charges:
               1
     1  C    0.768736
     2  C    0.959207
     3  C   -0.900533
     4  H   -0.182369
     5  H   -0.182375
     6  H   -0.182380
     7  H   -0.280286
 Sum of Mulliken charges =  -0.00000

 Dipole moment (field-independent basis, Debye):
    X=              0.0002    Y=             -0.0123    Z=             -0.8111  Tot=              0.8112
 Quadrupole moment (field-independent basis, Debye-Ang):
   XX=            -19.7214   YY=            -19.7202   ZZ=            -14.8996
   XY=             -0.0000   XZ=             -0.0010   YZ=              0.0728

 Normal termination of Gaussian 16 at Mon Mar 21 19:57:04 2022.
