 Gaussian 16, Revision C.01,
 Gaussian 16:  EM64L-G16RevC.01  3-Jul-2019

 --------------------------------------------------------------------
 #P TD(Nstates=10000) blyp/Gen SCF(maxcycles=100) Int(Grid=ultrafine)
 --------------------------------------------------------------------

 ---------------------
 xGDB7_00001_tier4.com
 ---------------------
 Symbolic Z-matrix:
 Charge =  0 Multiplicity = 1

                         Standard orientation:
 ---------------------------------------------------------------------
 Center     Atomic      Atomic             Coordinates (Angstroms)
 Number     Number       Type             X           Y           Z
 ---------------------------------------------------------------------
      1          6           0        0.630149   -0.000001   -0.000003
      2          9           0       -0.748512    0.000002    0.000001
      3          1           0        0.985250    0.897475   -0.509314
      4          1           0        0.985222   -0.889832   -0.522562
      5          1           0        0.985245   -0.007652    1.031883
 ---------------------------------------------------------------------

 SCF Done:  E(RB-LYP) =  -139.610771565     A.U. after   11 cycles

 Excitation energies and oscillator strengths:

 Excited State   1:      Singlet-A      8.2371 eV  150.52 nm  f=0.0187  <S**2>=0.000
       9 -> 10         0.70655
 This state for optimization and/or second-order correction.
 Total Energy, E(TD-HF/TD-DFT) =  -139.308064883
 Copying the excited state density for this state as the 1-particle RhoCI density.

 Excited State   2:      Singlet-A      8.2371 eV  150.52 nm  f=0.0187  <S**2>=0.000
       8 -> 10         0.70655

 Excited State   3:      Singlet-A      9.0748 eV  136.62 nm  f=0.0115  <S**2>=0.000
       9 -> 11         0.70609

 Excited State   4:      Singlet-A      9.0749 eV  136.62 nm  f=0.0115  <S**2>=0.000
       8 -> 11         0.70609

 Excited State   5:      Singlet-A     10.1258 eV  122.44 nm  f=0.0000  <S**2>=0.000
       8 -> 13        -0.48974
       9 -> 12         0.49086

 Excited State   6:      Singlet-A     10.1538 eV  122.11 nm  f=0.0274  <S**2>=0.000
       8 -> 12        -0.48725
       9 -> 13         0.48730

 Excited State   7:      Singlet-A     10.1538 eV  122.11 nm  f=0.0274  <S**2>=0.000
       8 -> 13         0.48783
       9 -> 12         0.48673

 Excited State   8:      Singlet-A     10.3868 eV  119.37 nm  f=0.0989  <S**2>=0.000
       8 -> 12         0.48096
       9 -> 13         0.48094

 Excited State   9:      Singlet-A     11.4157 eV  108.61 nm  f=0.0071  <S**2>=0.000
       8 -> 16        -0.10744
       9 -> 14         0.68430
       9 -> 15        -0.10710

 Excited State  10:      Singlet-A     11.4157 eV  108.61 nm  f=0.0071  <S**2>=0.000
       8 -> 14         0.68412
       9 -> 16        -0.11517

 Excited State  11:      Singlet-A     11.4170 eV  108.60 nm  f=0.0000  <S**2>=0.000
       8 -> 15         0.50092
       9 -> 16         0.49752

 Excited State  12:      Singlet-A     11.6137 eV  106.76 nm  f=0.0043  <S**2>=0.000
       8 -> 16        -0.48137
       8 -> 17         0.11756
       9 -> 15         0.48174
       9 -> 18         0.11756

 Excited State  13:      Singlet-A     11.6827 eV  106.13 nm  f=0.0290  <S**2>=0.000
       6 -> 10        -0.16336
       8 -> 14         0.10045
       8 -> 15        -0.36946
       8 -> 16         0.28976
       9 -> 15         0.28962
       9 -> 16         0.36952

 Excited State  14:      Singlet-A     11.6827 eV  106.13 nm  f=0.0290  <S**2>=0.000
       7 -> 10        -0.16342
       8 -> 15         0.28964
       8 -> 16         0.36968
       9 -> 14         0.10005
       9 -> 15         0.36939
       9 -> 16        -0.28970

 Excited State  15:      Singlet-A     11.9298 eV  103.93 nm  f=0.1579  <S**2>=0.000
       7 -> 10         0.67531
       9 -> 14         0.11241

 Excited State  16:      Singlet-A     11.9298 eV  103.93 nm  f=0.1579  <S**2>=0.000
       6 -> 10         0.67532
       8 -> 14         0.11250

 Excited State  17:      Singlet-A     12.2592 eV  101.14 nm  f=0.0020  <S**2>=0.000
       5 -> 10         0.66946
       5 -> 11         0.10080
       8 -> 17         0.12978
       9 -> 18         0.12977

 Excited State  18:      Singlet-A     12.3075 eV  100.74 nm  f=0.0001  <S**2>=0.000
       8 -> 17         0.49830
       9 -> 18        -0.49829

 Excited State  19:      Singlet-A     12.3075 eV  100.74 nm  f=0.0001  <S**2>=0.000
       8 -> 18         0.48480
       9 -> 17         0.51145

 Excited State  20:      Singlet-A     12.3092 eV  100.72 nm  f=0.0000  <S**2>=0.000
       8 -> 18         0.51292
       9 -> 17        -0.48632

 Excited State  21:      Singlet-A     12.6959 eV   97.66 nm  f=0.0022  <S**2>=0.000
       5 -> 10        -0.17917
       5 -> 11         0.31486
       6 -> 12        -0.11700
       7 -> 13        -0.11700
       8 -> 17         0.39616
       9 -> 18         0.39618

 Excited State  22:      Singlet-A     12.7677 eV   97.11 nm  f=0.0116  <S**2>=0.000
       7 -> 11         0.69684

 Excited State  23:      Singlet-A     12.7678 eV   97.11 nm  f=0.0116  <S**2>=0.000
       6 -> 11         0.69684

 Excited State  24:      Singlet-A     13.6218 eV   91.02 nm  f=0.3735  <S**2>=0.000
       5 -> 11         0.59171
       5 -> 14         0.15869
       5 -> 19        -0.10411
       8 -> 17        -0.19143
       9 -> 18        -0.19143

 Excited State  25:      Singlet-A     13.7269 eV   90.32 nm  f=0.0000  <S**2>=0.000
       6 -> 12         0.20294
       6 -> 13        -0.45661
       7 -> 12         0.45724
       7 -> 13         0.20309

 Excited State  26:      Singlet-A     13.7952 eV   89.87 nm  f=0.0425  <S**2>=0.000
       6 -> 12         0.48721
       7 -> 13        -0.48714

 Excited State  27:      Singlet-A     13.7952 eV   89.87 nm  f=0.0425  <S**2>=0.000
       6 -> 13         0.48744
       7 -> 12         0.48690

 Excited State  28:      Singlet-A     14.0695 eV   88.12 nm  f=0.0177  <S**2>=0.000
       5 -> 12         0.61969
       8 -> 19        -0.31798

 Excited State  29:      Singlet-A     14.0696 eV   88.12 nm  f=0.0177  <S**2>=0.000
       5 -> 13         0.61960
       9 -> 19        -0.31817

 Excited State  30:      Singlet-A     14.1604 eV   87.56 nm  f=0.0328  <S**2>=0.000
       5 -> 13         0.31754
       9 -> 19         0.61595

 Excited State  31:      Singlet-A     14.1605 eV   87.56 nm  f=0.0328  <S**2>=0.000
       5 -> 12         0.31734
       8 -> 19         0.61605

 Excited State  32:      Singlet-A     14.6056 eV   84.89 nm  f=0.0154  <S**2>=0.000
       4 -> 10         0.10764
       6 -> 12         0.40879
       6 -> 13         0.18163
       7 -> 12        -0.18162
       7 -> 13         0.40877

 Excited State  33:      Singlet-A     14.9423 eV   82.98 nm  f=0.0103  <S**2>=0.000
       7 -> 14         0.30798
       9 -> 20         0.61779

 Excited State  34:      Singlet-A     14.9424 eV   82.98 nm  f=0.0103  <S**2>=0.000
       6 -> 14         0.30794
       8 -> 20         0.61783

 Excited State  35:      Singlet-A     15.0428 eV   82.42 nm  f=0.0016  <S**2>=0.000
       6 -> 16        -0.16271
       7 -> 14         0.60078
       7 -> 15        -0.16692
       9 -> 20        -0.24647

 Excited State  36:      Singlet-A     15.0429 eV   82.42 nm  f=0.0016  <S**2>=0.000
       6 -> 14         0.60016
       6 -> 15         0.14080
       7 -> 16        -0.18895
       8 -> 20        -0.24607

 Excited State  37:      Singlet-A     15.0433 eV   82.42 nm  f=0.0000  <S**2>=0.000
       6 -> 15         0.50143
       7 -> 16         0.48137

 Excited State  38:      Singlet-A     15.1437 eV   81.87 nm  f=0.0081  <S**2>=0.000
       5 -> 14         0.25307
       6 -> 16         0.45010
       7 -> 15        -0.45009

 Excited State  39:      Singlet-A     15.4339 eV   80.33 nm  f=0.0238  <S**2>=0.000
       5 -> 15         0.69368

 Excited State  40:      Singlet-A     15.4339 eV   80.33 nm  f=0.0238  <S**2>=0.000
       5 -> 16         0.69371

 Excited State  41:      Singlet-A     15.5373 eV   79.80 nm  f=0.1873  <S**2>=0.000
       6 -> 14         0.14144
       6 -> 15        -0.27469
       6 -> 16         0.18887
       7 -> 15         0.18884
       7 -> 16         0.27474
       8 -> 20        -0.12474
       8 -> 22         0.29913
       9 -> 21         0.29921

 Excited State  42:      Singlet-A     15.5373 eV   79.80 nm  f=0.1873  <S**2>=0.000
       6 -> 15         0.18885
       6 -> 16         0.27477
       7 -> 14         0.14111
       7 -> 15         0.27476
       7 -> 16        -0.18884
       8 -> 21         0.29918
       9 -> 20        -0.12474
       9 -> 22        -0.29918

 Excited State  43:      Singlet-A     15.6790 eV   79.08 nm  f=0.0001  <S**2>=0.000
       5 -> 14         0.54343
       6 -> 16        -0.14465
       6 -> 17         0.19561
       7 -> 15         0.14463
       7 -> 18         0.19563
       8 -> 21         0.11940
       9 -> 22         0.11942

 Excited State  44:      Singlet-A     15.7215 eV   78.86 nm  f=0.0000  <S**2>=0.000
       8 -> 21         0.30368
       8 -> 22        -0.39696
       9 -> 21         0.39728
       9 -> 22         0.30383

 Excited State  45:      Singlet-A     15.7568 eV   78.69 nm  f=0.0914  <S**2>=0.000
       6 -> 16         0.20374
       6 -> 17         0.20641
       7 -> 15         0.20378
       7 -> 18        -0.20644
       8 -> 21        -0.30632
       8 -> 22        -0.19883
       9 -> 20        -0.11309
       9 -> 21        -0.19877
       9 -> 22         0.30641

 Excited State  46:      Singlet-A     15.7568 eV   78.69 nm  f=0.0914  <S**2>=0.000
       6 -> 15         0.20368
       6 -> 18        -0.20635
       7 -> 16        -0.20375
       7 -> 17        -0.20649
       8 -> 20         0.11310
       8 -> 21        -0.19898
       8 -> 22         0.30657
       9 -> 21         0.30618
       9 -> 22         0.19861

 Excited State  47:      Singlet-A     15.9132 eV   77.91 nm  f=0.0000  <S**2>=0.000
       6 -> 17         0.10598
       6 -> 18        -0.48814
       7 -> 17         0.48884
       7 -> 18         0.10609

 Excited State  48:      Singlet-A     15.9461 eV   77.75 nm  f=0.2869  <S**2>=0.000
       4 -> 10         0.10395
       5 -> 14        -0.20992
       5 -> 19        -0.14349
       8 -> 21         0.35545
       8 -> 22         0.27188
       9 -> 21        -0.27186
       9 -> 22         0.35543

 Excited State  49:      Singlet-A     15.9757 eV   77.61 nm  f=0.1284  <S**2>=0.000
       6 -> 15         0.14815
       6 -> 18         0.43413
       7 -> 16        -0.14821
       7 -> 17         0.43335

 Excited State  50:      Singlet-A     15.9758 eV   77.61 nm  f=0.1284  <S**2>=0.000
       6 -> 16        -0.14821
       6 -> 17         0.43376
       7 -> 15        -0.14823
       7 -> 18        -0.43371

 Excited State  51:      Singlet-A     16.1569 eV   76.74 nm  f=0.0004  <S**2>=0.000
       5 -> 18        -0.19619
       9 -> 23         0.67386

 Excited State  52:      Singlet-A     16.1570 eV   76.74 nm  f=0.0004  <S**2>=0.000
       5 -> 17        -0.19632
       8 -> 23         0.67382

 Excited State  53:      Singlet-A     16.2222 eV   76.43 nm  f=0.1298  <S**2>=0.000
       5 -> 14        -0.19971
       5 -> 19        -0.12751
       6 -> 17         0.43463
       7 -> 18         0.43458

 Excited State  54:      Singlet-A     16.2848 eV   76.13 nm  f=0.0173  <S**2>=0.000
       5 -> 17         0.67018
       8 -> 23         0.18977

 Excited State  55:      Singlet-A     16.2849 eV   76.13 nm  f=0.0173  <S**2>=0.000
       5 -> 18         0.67022
       9 -> 23         0.18965

 Excited State  56:      Singlet-A     16.7966 eV   73.82 nm  f=0.0105  <S**2>=0.000
       9 -> 24         0.70372

 Excited State  57:      Singlet-A     16.7966 eV   73.81 nm  f=0.0105  <S**2>=0.000
       8 -> 24         0.70372

 Excited State  58:      Singlet-A     17.0085 eV   72.90 nm  f=0.0000  <S**2>=0.000
       8 -> 25         0.48373
       8 -> 26        -0.12443
       9 -> 25         0.12448
       9 -> 26         0.48372

 Excited State  59:      Singlet-A     17.1806 eV   72.17 nm  f=0.0149  <S**2>=0.000
       8 -> 25        -0.38709
       8 -> 26        -0.28114
       9 -> 25        -0.28186
       9 -> 26         0.38731

 Excited State  60:      Singlet-A     17.1806 eV   72.17 nm  f=0.0149  <S**2>=0.000
       8 -> 25        -0.28163
       8 -> 26         0.38675
       9 -> 25         0.38765
       9 -> 26         0.28136

 Excited State  61:      Singlet-A     17.2004 eV   72.08 nm  f=0.0086  <S**2>=0.000
       4 -> 10         0.36671
       4 -> 11         0.10179
       5 -> 19         0.13709
       8 -> 26         0.38782
       9 -> 25        -0.38639

 Excited State  62:      Singlet-A     17.5032 eV   70.83 nm  f=0.0271  <S**2>=0.000
       4 -> 10         0.54436
       5 -> 19         0.15003
       5 -> 20         0.11079
       8 -> 26        -0.24159
       9 -> 25         0.24157

 Excited State  63:      Singlet-A     17.7318 eV   69.92 nm  f=0.0007  <S**2>=0.000
       7 -> 19         0.69367

 Excited State  64:      Singlet-A     17.7319 eV   69.92 nm  f=0.0007  <S**2>=0.000
       6 -> 19         0.69367

 Excited State  65:      Singlet-A     18.2638 eV   67.89 nm  f=0.0530  <S**2>=0.000
       4 -> 11         0.62430
       8 -> 27         0.15843
       9 -> 28        -0.15841

 Excited State  66:      Singlet-A     18.4377 eV   67.25 nm  f=0.0000  <S**2>=0.000
       8 -> 27        -0.23640
       8 -> 28         0.43967
       9 -> 27         0.44032
       9 -> 28         0.23635

 Excited State  67:      Singlet-A     18.4797 eV   67.09 nm  f=0.0892  <S**2>=0.000
       4 -> 11        -0.18284
       5 -> 19        -0.27708
       5 -> 20        -0.17003
       8 -> 27         0.35944
       8 -> 28         0.19216
       9 -> 27         0.19379
       9 -> 28        -0.35897

 Excited State  68:      Singlet-A     18.4871 eV   67.07 nm  f=0.0243  <S**2>=0.000
       7 -> 20         0.39154
       8 -> 27         0.33009
       8 -> 28         0.24751
       9 -> 27        -0.24683
       9 -> 28         0.32982

 Excited State  69:      Singlet-A     18.4871 eV   67.07 nm  f=0.0243  <S**2>=0.000
       6 -> 20         0.39141
       8 -> 27         0.24665
       8 -> 28        -0.33060
       9 -> 27         0.32940
       9 -> 28         0.24777

 Excited State  70:      Singlet-A     18.6287 eV   66.56 nm  f=0.0529  <S**2>=0.000
       4 -> 13        -0.11557
       7 -> 20         0.55219
       8 -> 27        -0.21439
       8 -> 28        -0.17044
       9 -> 27         0.17034
       9 -> 28        -0.21436

 Excited State  71:      Singlet-A     18.6288 eV   66.56 nm  f=0.0529  <S**2>=0.000
       4 -> 12        -0.11560
       6 -> 20         0.55227
       8 -> 27        -0.17033
       8 -> 28         0.21436
       9 -> 27        -0.21425
       9 -> 28        -0.17033

 Excited State  72:      Singlet-A     18.8771 eV   65.68 nm  f=0.0318  <S**2>=0.000
       9 -> 29         0.69404

 Excited State  73:      Singlet-A     18.8771 eV   65.68 nm  f=0.0318  <S**2>=0.000
       8 -> 29         0.69404

 Excited State  74:      Singlet-A     18.8871 eV   65.65 nm  f=0.0008  <S**2>=0.000
       4 -> 10        -0.10826
       5 -> 19         0.15975
       5 -> 20         0.60301
       8 -> 27         0.13760
       9 -> 28        -0.13767

 Excited State  75:      Singlet-A     19.2932 eV   64.26 nm  f=0.0107  <S**2>=0.000
       4 -> 12         0.27405
       4 -> 13        -0.30402
       6 -> 21        -0.38794
       7 -> 20        -0.10195
       7 -> 22         0.38851

 Excited State  76:      Singlet-A     19.2932 eV   64.26 nm  f=0.0107  <S**2>=0.000
       4 -> 12         0.30412
       4 -> 13         0.27401
       6 -> 20         0.10198
       6 -> 22         0.38788
       7 -> 21         0.38851

 Excited State  77:      Singlet-A     19.3213 eV   64.17 nm  f=0.0000  <S**2>=0.000
       6 -> 21         0.38352
       6 -> 22        -0.32113
       7 -> 21         0.32075
       7 -> 22         0.38325

 Excited State  78:      Singlet-A     19.3518 eV   64.07 nm  f=0.0087  <S**2>=0.000
       4 -> 12         0.46654
       4 -> 13        -0.21797
       5 -> 21        -0.11692
       6 -> 21         0.26217
       6 -> 22        -0.14468
       7 -> 21        -0.14435
       7 -> 22        -0.26174
       7 -> 23         0.11342

 Excited State  79:      Singlet-A     19.3518 eV   64.07 nm  f=0.0087  <S**2>=0.000
       4 -> 12         0.21791
       4 -> 13         0.46660
       5 -> 22        -0.11691
       6 -> 21        -0.14426
       6 -> 22        -0.26200
       6 -> 23        -0.11339
       7 -> 21        -0.26194
       7 -> 22         0.14460

 Excited State  80:      Singlet-A     19.4381 eV   63.78 nm  f=0.0000  <S**2>=0.000
       4 -> 11         0.14494
       4 -> 14         0.10565
       5 -> 19        -0.25544
       5 -> 20         0.17993
       6 -> 21         0.24497
       6 -> 22         0.29270
       6 -> 26         0.12839
       7 -> 21        -0.29251
       7 -> 22         0.24489
       7 -> 25        -0.12837

 Excited State  81:      Singlet-A     19.6611 eV   63.06 nm  f=0.1192  <S**2>=0.000
       4 -> 10        -0.10456
       5 -> 19         0.37792
       5 -> 20        -0.18905
       6 -> 21         0.17766
       6 -> 22         0.21222
       6 -> 26        -0.10731
       7 -> 21        -0.21212
       7 -> 22         0.17760
       7 -> 25         0.10734
       8 -> 31        -0.18778
       9 -> 32        -0.18778

 Excited State  82:      Singlet-A     19.6991 eV   62.94 nm  f=0.0291  <S**2>=0.000
       5 -> 21         0.65860
       5 -> 22         0.16522
       8 -> 30         0.10194

 Excited State  83:      Singlet-A     19.6991 eV   62.94 nm  f=0.0291  <S**2>=0.000
       5 -> 21        -0.16520
       5 -> 22         0.65859
       9 -> 30         0.10208

 Excited State  84:      Singlet-A     19.7516 eV   62.77 nm  f=0.0015  <S**2>=0.000
       7 -> 23        -0.28683
       9 -> 30         0.62554

 Excited State  85:      Singlet-A     19.7516 eV   62.77 nm  f=0.0015  <S**2>=0.000
       6 -> 23        -0.28680
       8 -> 30         0.62558

 Excited State  86:      Singlet-A     19.9074 eV   62.28 nm  f=0.1018  <S**2>=0.000
       4 -> 13         0.12800
       7 -> 23         0.60810
       9 -> 30         0.29057

 Excited State  87:      Singlet-A     19.9075 eV   62.28 nm  f=0.1018  <S**2>=0.000
       4 -> 12         0.12798
       6 -> 23         0.60813
       8 -> 30         0.29054

 Excited State  88:      Singlet-A     20.1665 eV   61.48 nm  f=0.0325  <S**2>=0.000
       4 -> 14         0.26148
       5 -> 23         0.64613

 Excited State  89:      Singlet-A     20.3855 eV   60.82 nm  f=0.0017  <S**2>=0.000
       4 -> 16        -0.21759
       7 -> 24         0.66864

 Excited State  90:      Singlet-A     20.3855 eV   60.82 nm  f=0.0017  <S**2>=0.000
       4 -> 15        -0.21768
       6 -> 24         0.66861

 Excited State  91:      Singlet-A     20.6066 eV   60.17 nm  f=0.0000  <S**2>=0.000
       5 -> 24        -0.12582
       6 -> 25         0.49139
       7 -> 26         0.49108

 Excited State  92:      Singlet-A     20.6074 eV   60.16 nm  f=0.0012  <S**2>=0.000
       4 -> 15         0.64249
       5 -> 25        -0.13237
       6 -> 24         0.20569

 Excited State  93:      Singlet-A     20.6075 eV   60.16 nm  f=0.0012  <S**2>=0.000
       4 -> 16         0.64266
       5 -> 26        -0.13238
       7 -> 24         0.20563

 Excited State  94:      Singlet-A     20.6085 eV   60.16 nm  f=0.0411  <S**2>=0.000
       4 -> 14         0.62041
       4 -> 19         0.11128
       5 -> 23        -0.21713
       6 -> 26         0.10122

 Excited State  95:      Singlet-A     20.7701 eV   59.69 nm  f=0.0000  <S**2>=0.000
       5 -> 24         0.69529

 Excited State  96:      Singlet-A     20.9002 eV   59.32 nm  f=0.0321  <S**2>=0.000
       5 -> 25         0.44033
       6 -> 25        -0.21757
       6 -> 26        -0.25202
       7 -> 25        -0.25210
       7 -> 26         0.21753
       8 -> 31         0.17973
       9 -> 32        -0.17975

 Excited State  97:      Singlet-A     20.9002 eV   59.32 nm  f=0.0321  <S**2>=0.000
       5 -> 26         0.44030
       6 -> 25        -0.25208
       6 -> 26         0.21752
       7 -> 25         0.21757
       7 -> 26         0.25203
       8 -> 32        -0.17976
       9 -> 31        -0.17981

 Excited State  98:      Singlet-A     21.0624 eV   58.87 nm  f=0.0000  <S**2>=0.000
       8 -> 31         0.21879
       8 -> 32        -0.44904
       9 -> 31         0.44953
       9 -> 32         0.21883

 Excited State  99:      Singlet-A     21.0854 eV   58.80 nm  f=0.0379  <S**2>=0.000
       4 -> 16         0.11327
       5 -> 25         0.30436
       5 -> 26         0.35765
       6 -> 25         0.14007
       7 -> 26        -0.14007
       8 -> 31        -0.25373
       8 -> 32         0.19858
       9 -> 31         0.19815
       9 -> 32         0.25351

 Excited State 100:      Singlet-A     21.0854 eV   58.80 nm  f=0.0379  <S**2>=0.000
       4 -> 15         0.11327
       5 -> 25         0.35759
       5 -> 26        -0.30439
       6 -> 26         0.14008
       7 -> 25         0.14005
       8 -> 31        -0.19829
       8 -> 32        -0.25384
       9 -> 31        -0.25338
       9 -> 32         0.19852

 Excited State 101:      Singlet-A     21.2580 eV   58.32 nm  f=0.1511  <S**2>=0.000
       4 -> 17        -0.13681
       5 -> 26        -0.23436
       6 -> 25        -0.19297
       6 -> 26         0.23100
       7 -> 25         0.23170
       7 -> 26         0.19293
       8 -> 32         0.32075
       9 -> 31         0.32061

 Excited State 102:      Singlet-A     21.2580 eV   58.32 nm  f=0.1511  <S**2>=0.000
       4 -> 18        -0.13671
       5 -> 25         0.23443
       6 -> 25         0.23132
       6 -> 26         0.19243
       7 -> 25         0.19348
       7 -> 26        -0.23137
       8 -> 31         0.32075
       9 -> 32        -0.32060

 Excited State 103:      Singlet-A     21.2679 eV   58.30 nm  f=0.0008  <S**2>=0.000
       4 -> 20        -0.10013
       6 -> 26         0.38381
       6 -> 27        -0.24438
       7 -> 25        -0.38281

 The electronic state is 1-A.
 Alpha  occ. eigenvalues --  -24.29052 -10.00044  -1.07370  -0.62396  -0.44054
 Alpha  occ. eigenvalues --   -0.42836  -0.42836  -0.29605  -0.29605
 Alpha virt. eigenvalues --    0.00488   0.03059   0.07607   0.07607   0.12285
 Alpha virt. eigenvalues --    0.12487   0.12487   0.15688   0.15688   0.21917
 Alpha virt. eigenvalues --    0.25011   0.28170   0.28171   0.29734   0.32332

 Mulliken charges:
               1
     1  C    1.066578
     2  F   -0.443741
     3  H   -0.207599
     4  H   -0.207618
     5  H   -0.207620
 Sum of Mulliken charges =  -0.00000

 Dipole moment (field-independent basis, Debye):
    X=              1.7836    Y=             -0.0000    Z=              0.0000  Tot=              1.7836
 Quadrupole moment (field-independent basis, Debye-Ang):
   XX=            -12.9247   YY=            -12.1808   ZZ=            -12.1809
   XY=              0.0000   XZ=              0.0000   YZ=              0.0000

 Normal termination of Gaussian 16 at Mon Mar 21 20:03:28 2022.
