 Gaussian 16, Revision C.01,
 Gaussian 16:  EM64L-G16RevC.01  3-Jul-2019

 --------------------------------------------------------------------
 #P TD(Nstates=10000) blyp/Gen SCF(maxcycles=100) Int(Grid=ultrafine)
 --------------------------------------------------------------------

 ---------------------
 xGDB7_00001_tier4.com
 ---------------------
 Symbolic Z-matrix:
 Charge =  0 Multiplicity = 1

                         Standard orientation:
 ---------------------------------------------------------------------
 Center     Atomic      Atomic             Coordinates (Angstroms)
 Number     Number       Type             X           Y           Z
 ---------------------------------------------------------------------
      1          6           0       -1.122844   -0.452320    0.000000
      2          6           0        0.000000    0.553997    0.000000
      3          9           0        1.225284   -0.098236    0.000000
      4          1           0       -2.083314    0.066805    0.000000
      5          1           0       -1.072796   -1.085651    0.886148
      6          1           0       -1.072796   -1.085651   -0.886148
      7          1           0       -0.030794    1.189278    0.888716
      8          1           0       -0.030794    1.189278   -0.888716
 ---------------------------------------------------------------------

 SCF Done:  E(RB-LYP) =  -178.877856031     A.U. after   13 cycles

 Excitation energies and oscillator strengths:

 Excited State   1:      Singlet-A"     7.8513 eV  157.91 nm  f=0.0013  <S**2>=0.000
      13 -> 14         0.70668
 This state for optimization and/or second-order correction.
 Total Energy, E(TD-HF/TD-DFT) =  -178.589324964
 Copying the excited state density for this state as the 1-particle RhoCI density.

 Excited State   2:      Singlet-A'     8.0788 eV  153.47 nm  f=0.0164  <S**2>=0.000
      12 -> 14         0.70454

 Excited State   3:      Singlet-A"     8.6514 eV  143.31 nm  f=0.0223  <S**2>=0.000
      13 -> 15         0.70542

 Excited State   4:      Singlet-A'     8.8296 eV  140.42 nm  f=0.0414  <S**2>=0.000
      12 -> 15         0.70258

 Excited State   5:      Singlet-A"     9.2382 eV  134.21 nm  f=0.0168  <S**2>=0.000
      13 -> 16         0.70189

 Excited State   6:      Singlet-A'     9.3685 eV  132.34 nm  f=0.0085  <S**2>=0.000
      12 -> 16        -0.44474
      13 -> 17         0.54103

 Excited State   7:      Singlet-A'     9.4546 eV  131.14 nm  f=0.1001  <S**2>=0.000
      12 -> 16         0.54058
      13 -> 17         0.44466

 Excited State   8:      Singlet-A"     9.4990 eV  130.52 nm  f=0.0256  <S**2>=0.000
      12 -> 17         0.70264

 Excited State   9:      Singlet-A"     9.5983 eV  129.17 nm  f=0.0162  <S**2>=0.000
      11 -> 14         0.70238

 Excited State  10:      Singlet-A'     9.7213 eV  127.54 nm  f=0.0491  <S**2>=0.000
      10 -> 14         0.70088

 Excited State  11:      Singlet-A"     9.8762 eV  125.54 nm  f=0.0009  <S**2>=0.000
      13 -> 18         0.70270

 Excited State  12:      Singlet-A'    10.0867 eV  122.92 nm  f=0.0326  <S**2>=0.000
      12 -> 18         0.69639

 Excited State  13:      Singlet-A"    10.4023 eV  119.19 nm  f=0.0440  <S**2>=0.000
      11 -> 15         0.69357
      13 -> 20        -0.11557

 Excited State  14:      Singlet-A'    10.5221 eV  117.83 nm  f=0.0830  <S**2>=0.000
      10 -> 15         0.69243

 Excited State  15:      Singlet-A"    10.5612 eV  117.40 nm  f=0.0299  <S**2>=0.000
      11 -> 15         0.10952
      13 -> 20         0.69148

 Excited State  16:      Singlet-A'    10.5924 eV  117.05 nm  f=0.0028  <S**2>=0.000
      12 -> 20         0.14511
      13 -> 19         0.67347

 Excited State  17:      Singlet-A"    10.6081 eV  116.88 nm  f=0.0011  <S**2>=0.000
      12 -> 19         0.70432

 Excited State  18:      Singlet-A'    10.7038 eV  115.83 nm  f=0.0061  <S**2>=0.000
      12 -> 20         0.68875
      13 -> 19        -0.14140

 Excited State  19:      Singlet-A"    10.8985 eV  113.76 nm  f=0.0001  <S**2>=0.000
      11 -> 16         0.69394
      13 -> 21         0.11020

 Excited State  20:      Singlet-A"    10.9835 eV  112.88 nm  f=0.0000  <S**2>=0.000
      11 -> 16        -0.11030
      13 -> 21         0.69601

 Excited State  21:      Singlet-A'    10.9985 eV  112.73 nm  f=0.0301  <S**2>=0.000
       9 -> 14         0.56785
      10 -> 16        -0.40421

 Excited State  22:      Singlet-A'    11.0844 eV  111.85 nm  f=0.0535  <S**2>=0.000
       9 -> 14        -0.15839
      10 -> 16        -0.25329
      11 -> 17         0.59781
      12 -> 21         0.15251

 Excited State  23:      Singlet-A"    11.1091 eV  111.61 nm  f=0.0323  <S**2>=0.000
      10 -> 17         0.70160

 Excited State  24:      Singlet-A'    11.1294 eV  111.40 nm  f=0.0091  <S**2>=0.000
       9 -> 14         0.34504
      10 -> 16         0.45192
      11 -> 17         0.32964
      12 -> 21        -0.11400
      13 -> 22         0.17604

 Excited State  25:      Singlet-A'    11.2399 eV  110.31 nm  f=0.0313  <S**2>=0.000
       9 -> 14         0.12918
      10 -> 16         0.15405
      12 -> 21         0.65512
      13 -> 22        -0.12269

 Excited State  26:      Singlet-A'    11.3744 eV  109.00 nm  f=0.0044  <S**2>=0.000
      10 -> 16        -0.11206
      12 -> 21         0.15862
      13 -> 22         0.66296

 Excited State  27:      Singlet-A"    11.4716 eV  108.08 nm  f=0.0012  <S**2>=0.000
      12 -> 22         0.70298

 Excited State  28:      Singlet-A"    11.6496 eV  106.43 nm  f=0.0147  <S**2>=0.000
      11 -> 18         0.68930

 Excited State  29:      Singlet-A'    11.8006 eV  105.07 nm  f=0.0176  <S**2>=0.000
       9 -> 15         0.64251
      10 -> 18         0.22382
      12 -> 23         0.11482

 Excited State  30:      Singlet-A"    11.8161 eV  104.93 nm  f=0.0007  <S**2>=0.000
      13 -> 23         0.70519

 Excited State  31:      Singlet-A'    11.9506 eV  103.75 nm  f=0.1318  <S**2>=0.000
       7 -> 14        -0.10431
       9 -> 15        -0.20710
      10 -> 18         0.39160
      12 -> 23         0.49902
      13 -> 24        -0.15292

 Excited State  32:      Singlet-A'    12.0319 eV  103.05 nm  f=0.0420  <S**2>=0.000
       7 -> 14        -0.12012
      10 -> 18         0.43399
      11 -> 19         0.22629
      12 -> 23        -0.43181
      13 -> 24         0.13928

 Excited State  33:      Singlet-A"    12.1845 eV  101.76 nm  f=0.0405  <S**2>=0.000
       8 -> 14         0.60629
      10 -> 19         0.10646
      12 -> 24         0.21431
      13 -> 25        -0.25541

 Excited State  34:      Singlet-A"    12.2142 eV  101.51 nm  f=0.0018  <S**2>=0.000
       8 -> 14         0.10084
      10 -> 19        -0.26177
      11 -> 20         0.64108

 Excited State  35:      Singlet-A"    12.2294 eV  101.38 nm  f=0.0230  <S**2>=0.000
       8 -> 14        -0.28721
      12 -> 24         0.60625
      13 -> 25        -0.20857

 Excited State  36:      Singlet-A'    12.2377 eV  101.31 nm  f=0.0557  <S**2>=0.000
       7 -> 14         0.36673
       9 -> 16         0.16122
      10 -> 20         0.18840
      11 -> 19         0.27933
      12 -> 23         0.15927
      13 -> 24         0.42327

 Excited State  37:      Singlet-A'    12.2891 eV  100.89 nm  f=0.0931  <S**2>=0.000
       7 -> 14        -0.24387
       9 -> 16         0.28960
      10 -> 20        -0.29092
      11 -> 19        -0.27313
      12 -> 25        -0.14594
      13 -> 24         0.39951

 Excited State  38:      Singlet-A'    12.3129 eV  100.69 nm  f=0.0295  <S**2>=0.000
       7 -> 14         0.49128
       9 -> 16         0.13890
      10 -> 18         0.17004
      10 -> 20        -0.26241
      10 -> 21        -0.12058
      11 -> 19        -0.24666
      11 -> 22        -0.10004
      13 -> 24        -0.14758

 Excited State  39:      Singlet-A"    12.3352 eV  100.51 nm  f=0.0090  <S**2>=0.000
      10 -> 19         0.53757
      11 -> 20         0.27065
      12 -> 24         0.15984
      13 -> 25         0.31520

 Excited State  40:      Singlet-A'    12.3997 eV   99.99 nm  f=0.0071  <S**2>=0.000
       7 -> 14        -0.10177
       9 -> 16         0.48558
      10 -> 20         0.41646
      11 -> 19        -0.12819
      13 -> 24        -0.16517

 Excited State  41:      Singlet-A"    12.4121 eV   99.89 nm  f=0.0241  <S**2>=0.000
       9 -> 17         0.57133
      10 -> 19         0.21792
      12 -> 24        -0.10688
      13 -> 25        -0.30372

 Excited State  42:      Singlet-A"    12.5494 eV   98.80 nm  f=0.1210  <S**2>=0.000
       8 -> 14         0.13448
       9 -> 17         0.39647
      10 -> 19        -0.21447
      11 -> 21         0.24032
      12 -> 24         0.18996
      13 -> 25         0.39259

 Excited State  43:      Singlet-A'    12.5525 eV   98.77 nm  f=0.1035  <S**2>=0.000
       7 -> 14        -0.10110
       9 -> 15         0.10993
       9 -> 16         0.26294
      10 -> 20        -0.33627
      11 -> 19         0.31190
      12 -> 25         0.36340
      13 -> 24        -0.13327

 Excited State  44:      Singlet-A'    12.7528 eV   97.22 nm  f=0.0129  <S**2>=0.000
       9 -> 16        -0.14898
      10 -> 21         0.18600
      10 -> 23        -0.11898
      11 -> 19        -0.26230
      12 -> 25         0.52519
      13 -> 24         0.13070

 Excited State  45:      Singlet-A"    12.7672 eV   97.11 nm  f=0.0349  <S**2>=0.000
      10 -> 19         0.10250
      11 -> 21         0.65450
      13 -> 25        -0.13313

 Excited State  46:      Singlet-A'    12.8454 eV   96.52 nm  f=0.0182  <S**2>=0.000
       9 -> 18         0.24669
      10 -> 21         0.60960
      11 -> 22        -0.15539

 Excited State  47:      Singlet-A"    12.9581 eV   95.68 nm  f=0.0071  <S**2>=0.000
       8 -> 15         0.69667

 Excited State  48:      Singlet-A'    13.0477 eV   95.02 nm  f=0.0267  <S**2>=0.000
       7 -> 15        -0.34306
       9 -> 18         0.45390
      11 -> 22         0.38010

 Excited State  49:      Singlet-A'    13.0966 eV   94.67 nm  f=0.0370  <S**2>=0.000
       7 -> 15         0.56527
       7 -> 16        -0.13406
       8 -> 17        -0.10158
       9 -> 18         0.35826

 Excited State  50:      Singlet-A"    13.1324 eV   94.41 nm  f=0.0200  <S**2>=0.000
      10 -> 22         0.68268

 Excited State  51:      Singlet-A"    13.2159 eV   93.81 nm  f=0.0144  <S**2>=0.000
      13 -> 26         0.69439

 Excited State  52:      Singlet-A'    13.2839 eV   93.33 nm  f=0.0492  <S**2>=0.000
       8 -> 17        -0.20886
       9 -> 18        -0.24112
      10 -> 21         0.15656
      11 -> 22         0.46383
      12 -> 26         0.29757
      13 -> 27         0.13436

 Excited State  53:      Singlet-A'    13.4354 eV   92.28 nm  f=0.0119  <S**2>=0.000
       7 -> 16        -0.11861
       8 -> 17         0.20476
      11 -> 22        -0.12673
      12 -> 26         0.61111
      13 -> 27        -0.15976

 Excited State  54:      Singlet-A'    13.4924 eV   91.89 nm  f=0.0081  <S**2>=0.000
       8 -> 17         0.15818
       9 -> 20        -0.11033
      10 -> 23        -0.15624
      13 -> 27         0.64331

 Excited State  55:      Singlet-A"    13.5456 eV   91.53 nm  f=0.0001  <S**2>=0.000
      10 -> 24        -0.10152
      11 -> 23         0.68740

 Excited State  56:      Singlet-A"    13.5812 eV   91.29 nm  f=0.0020  <S**2>=0.000
       8 -> 16         0.45779
       9 -> 19         0.47181
      12 -> 27         0.21884

 Excited State  57:      Singlet-A"    13.5874 eV   91.25 nm  f=0.0011  <S**2>=0.000
       8 -> 16        -0.46891
       9 -> 19         0.51109

 Excited State  58:      Singlet-A"    13.6417 eV   90.89 nm  f=0.0000  <S**2>=0.000
       8 -> 16        -0.17926
       9 -> 19        -0.10589
      12 -> 27         0.66083

 Excited State  59:      Singlet-A'    13.6635 eV   90.74 nm  f=0.0231  <S**2>=0.000
       7 -> 16        -0.16995
       8 -> 17         0.12019
       9 -> 20         0.64277
      10 -> 23        -0.15413
      11 -> 24        -0.10969

 Excited State  60:      Singlet-A"    13.6904 eV   90.56 nm  f=0.0264  <S**2>=0.000
       7 -> 17         0.68601
       8 -> 16         0.13235

 Excited State  61:      Singlet-A'    13.7539 eV   90.14 nm  f=0.0612  <S**2>=0.000
       7 -> 15         0.10940
       7 -> 16         0.52662
       7 -> 18         0.10518
       8 -> 17         0.12951
      10 -> 23        -0.38239

 Excited State  62:      Singlet-A"    13.9269 eV   89.03 nm  f=0.0000  <S**2>=0.000
      10 -> 24         0.58960
      11 -> 25        -0.36491

 Excited State  63:      Singlet-A'    13.9278 eV   89.02 nm  f=0.0245  <S**2>=0.000
       7 -> 18         0.20008
       8 -> 17         0.40219
       9 -> 21        -0.29486
      10 -> 23         0.35014
      11 -> 24        -0.17452

 Excited State  64:      Singlet-A'    13.9930 eV   88.60 nm  f=0.1778  <S**2>=0.000
       7 -> 16        -0.23739
       8 -> 17         0.23846
       9 -> 21        -0.12460
       9 -> 23        -0.10324
      10 -> 23        -0.12599
      10 -> 25        -0.17164
      11 -> 22         0.13995
      11 -> 24         0.43751

 Excited State  65:      Singlet-A'    14.0383 eV   88.32 nm  f=0.0813  <S**2>=0.000
       7 -> 16         0.16306
       7 -> 18         0.19373
       9 -> 20         0.15828
       9 -> 21         0.35498
      10 -> 23         0.28883
      11 -> 24         0.36269

 Excited State  66:      Singlet-A"    14.0688 eV   88.13 nm  f=0.0011  <S**2>=0.000
       8 -> 18         0.13791
      13 -> 28         0.68144

 Excited State  67:      Singlet-A"    14.1263 eV   87.77 nm  f=0.0002  <S**2>=0.000
       8 -> 18         0.54893
      10 -> 24         0.17454
      11 -> 25         0.37565
      13 -> 28        -0.13013

 Excited State  68:      Singlet-A'    14.1699 eV   87.50 nm  f=0.0056  <S**2>=0.000
      10 -> 25         0.67349
      11 -> 24         0.14585

 Excited State  69:      Singlet-A'    14.2390 eV   87.07 nm  f=0.0064  <S**2>=0.000
       9 -> 21         0.16475
      12 -> 28         0.67239

 Excited State  70:      Singlet-A"    14.3236 eV   86.56 nm  f=0.1149  <S**2>=0.000
       7 -> 19         0.11736
       8 -> 18        -0.39267
       8 -> 20        -0.11081
       9 -> 22         0.11811
      10 -> 24         0.25806
      11 -> 25         0.41948

 Excited State  71:      Singlet-A'    14.3827 eV   86.20 nm  f=0.0272  <S**2>=0.000
       7 -> 18         0.51161
       7 -> 20        -0.14000
       9 -> 20        -0.10200
       9 -> 21         0.22833
      11 -> 24        -0.19701
      12 -> 28        -0.12532
      12 -> 29        -0.19138

 Excited State  72:      Singlet-A"    14.4572 eV   85.76 nm  f=0.0208  <S**2>=0.000
       9 -> 22         0.69494

 Excited State  73:      Singlet-A'    14.6725 eV   84.50 nm  f=0.0256  <S**2>=0.000
       6 -> 15         0.10622
       7 -> 18        -0.28828
       8 -> 17         0.26867
       8 -> 19        -0.10996
       9 -> 21         0.38156
      11 -> 22         0.12351
      11 -> 24        -0.12742
      12 -> 28        -0.12396

 Excited State  74:      Singlet-A"    14.7105 eV   84.28 nm  f=0.0369  <S**2>=0.000
       7 -> 19        -0.15168
      13 -> 29         0.68065

 Excited State  75:      Singlet-A"    14.8276 eV   83.62 nm  f=0.0095  <S**2>=0.000
       7 -> 19         0.58092
       8 -> 20         0.37140

 Excited State  76:      Singlet-A'    14.8347 eV   83.58 nm  f=0.0403  <S**2>=0.000
       7 -> 20         0.11231
       8 -> 19         0.59140
      10 -> 26        -0.22498
      12 -> 29        -0.24285

 Excited State  77:      Singlet-A"    14.8999 eV   83.21 nm  f=0.0365  <S**2>=0.000
       7 -> 19        -0.26055
       8 -> 20         0.50442
       9 -> 24        -0.10207
      11 -> 26         0.36151
      13 -> 31        -0.11337

 Excited State  78:      Singlet-A'    14.9446 eV   82.96 nm  f=0.0063  <S**2>=0.000
       7 -> 20         0.44797
       8 -> 19        -0.15189
       9 -> 23        -0.37001
      10 -> 26         0.11442
      12 -> 29        -0.28466

 Excited State  79:      Singlet-A"    15.0066 eV   82.62 nm  f=0.0905  <S**2>=0.000
       7 -> 19         0.19480
       8 -> 20        -0.19291
       8 -> 21         0.14440
       9 -> 24         0.19320
      11 -> 26         0.57384
      13 -> 31         0.10833

 Excited State  80:      Singlet-A'    15.0396 eV   82.44 nm  f=0.0148  <S**2>=0.000
       6 -> 14        -0.11646
       7 -> 20         0.22401
       8 -> 19        -0.17943
       9 -> 23         0.47021
       9 -> 25         0.10880
      10 -> 26        -0.29476
      11 -> 27         0.12201
      12 -> 29        -0.20409
      13 -> 30         0.11608

 Excited State  81:      Singlet-A'    15.0946 eV   82.14 nm  f=0.0009  <S**2>=0.000
       7 -> 20         0.26147
       8 -> 19         0.12360
       9 -> 23         0.11536
      10 -> 26         0.19349
      11 -> 27        -0.21772
      12 -> 29         0.31412
      13 -> 30         0.41943

 Excited State  82:      Singlet-A'    15.1678 eV   81.74 nm  f=0.0132  <S**2>=0.000
       7 -> 20        -0.15549
       7 -> 21         0.14618
      10 -> 26         0.33638
      11 -> 27         0.38637
      12 -> 29        -0.19053
      13 -> 30         0.31690

 Excited State  83:      Singlet-A"    15.2290 eV   81.41 nm  f=0.0037  <S**2>=0.000
       8 -> 21        -0.37519
       9 -> 24         0.56504
      10 -> 27        -0.17120

 Excited State  84:      Singlet-A'    15.2307 eV   81.40 nm  f=0.2022  <S**2>=0.000
       6 -> 14        -0.19279
       7 -> 21         0.13490
       8 -> 19         0.10452
       9 -> 23         0.22100
       9 -> 25         0.15539
      10 -> 26         0.36111
      11 -> 27        -0.21284
      12 -> 29        -0.13352
      12 -> 31        -0.17157
      13 -> 30        -0.30748

 Excited State  85:      Singlet-A"    15.2663 eV   81.21 nm  f=0.0078  <S**2>=0.000
       8 -> 21        -0.27382
      10 -> 27         0.61444
      12 -> 30        -0.13993
      13 -> 31         0.15235

 Excited State  86:      Singlet-A"    15.2822 eV   81.13 nm  f=0.0007  <S**2>=0.000
      12 -> 30         0.65134
      13 -> 31         0.25767

 Excited State  87:      Singlet-A'    15.2956 eV   81.06 nm  f=0.1795  <S**2>=0.000
       7 -> 20         0.20425
       9 -> 25        -0.21973
      11 -> 27         0.42258
      12 -> 29         0.21213
      12 -> 31        -0.26614
      13 -> 30        -0.23449

 Excited State  88:      Singlet-A"    15.3284 eV   80.89 nm  f=0.0023  <S**2>=0.000
       8 -> 21        -0.20360
       9 -> 24        -0.20191
      10 -> 27        -0.26214
      12 -> 30        -0.18705
      13 -> 31         0.54397

 Excited State  89:      Singlet-A'    15.3901 eV   80.56 nm  f=0.0084  <S**2>=0.000
       6 -> 14         0.21627
       7 -> 21         0.61587
       9 -> 25         0.13990

 Excited State  90:      Singlet-A'    15.4266 eV   80.37 nm  f=0.0382  <S**2>=0.000
       6 -> 14         0.50308
       7 -> 21        -0.21783
       8 -> 22        -0.20112
       9 -> 25         0.36725

 Excited State  91:      Singlet-A"    15.5093 eV   79.94 nm  f=0.2752  <S**2>=0.000
       7 -> 19        -0.10403
       7 -> 22         0.10063
       8 -> 20         0.17957
       8 -> 21         0.44059
       9 -> 24         0.26651
      11 -> 26        -0.11627
      12 -> 30        -0.11764
      12 -> 34         0.10482
      13 -> 31         0.26647

 Excited State  92:      Singlet-A'    15.5218 eV   79.88 nm  f=0.2022  <S**2>=0.000
      10 -> 26         0.10055
      10 -> 28        -0.13529
      12 -> 31         0.59007
      13 -> 30        -0.13438
      13 -> 34         0.10161

 Excited State  93:      Singlet-A'    15.6816 eV   79.06 nm  f=0.1369  <S**2>=0.000
       7 -> 21        -0.10878
       8 -> 22         0.58806
       9 -> 25         0.27474
      10 -> 28         0.15131
      11 -> 27         0.11798

 Excited State  94:      Singlet-A"    15.7011 eV   78.97 nm  f=0.0031  <S**2>=0.000
       7 -> 22         0.69528

 Excited State  95:      Singlet-A"    15.7572 eV   78.68 nm  f=0.0140  <S**2>=0.000
      11 -> 28         0.69942

 Excited State  96:      Singlet-A'    15.8592 eV   78.18 nm  f=0.0814  <S**2>=0.000
       7 -> 23         0.16552
       8 -> 22        -0.10095
      10 -> 28         0.62915

 Excited State  97:      Singlet-A'    15.9096 eV   77.93 nm  f=0.0684  <S**2>=0.000
       6 -> 14        -0.31976
       6 -> 15        -0.10431
       8 -> 22        -0.26039
       9 -> 23        -0.14555
       9 -> 25         0.35754
      11 -> 27         0.13436
      12 -> 29         0.13240
      12 -> 39        -0.11686

 Excited State  98:      Singlet-A"    16.1076 eV   76.97 nm  f=0.0001  <S**2>=0.000
       8 -> 23         0.57206
      13 -> 32         0.40921

 Excited State  99:      Singlet-A"    16.1542 eV   76.75 nm  f=0.0055  <S**2>=0.000
       8 -> 23        -0.40478
      13 -> 32         0.55401

 Excited State 100:      Singlet-A"    16.2279 eV   76.40 nm  f=0.0032  <S**2>=0.000
      13 -> 33         0.70060

 Excited State 101:      Singlet-A'    16.2411 eV   76.34 nm  f=0.0466  <S**2>=0.000
       6 -> 15         0.50134
      12 -> 32         0.45783
      13 -> 34        -0.10548

 Excited State 102:      Singlet-A'    16.3369 eV   75.89 nm  f=0.0038  <S**2>=0.000
       7 -> 23         0.53329
       8 -> 24         0.32694
       9 -> 26        -0.10430
      13 -> 34        -0.16088
      13 -> 36         0.12656

 Excited State 103:      Singlet-A'    16.3688 eV   75.74 nm  f=0.0012  <S**2>=0.000
       6 -> 15        -0.13228
       8 -> 24         0.25454
       9 -> 26         0.54453
      12 -> 32         0.23465
      12 -> 33         0.21162

 Excited State 104:      Singlet-A'    16.4257 eV   75.48 nm  f=0.0202  <S**2>=0.000
       6 -> 15         0.28656
       8 -> 24        -0.24290
       9 -> 26         0.18830
      12 -> 32        -0.31166
      12 -> 33         0.41731
      12 -> 35         0.10568

 Excited State 105:      Singlet-A'    16.4389 eV   75.42 nm  f=0.0294  <S**2>=0.000
       6 -> 15        -0.15390
       7 -> 23        -0.15585
       8 -> 24         0.14758
       9 -> 26        -0.32484
      10 -> 29        -0.15184
      12 -> 33         0.44362
      13 -> 34        -0.24585

 Excited State 106:      Singlet-A"    16.4522 eV   75.36 nm  f=0.0020  <S**2>=0.000
       7 -> 24         0.65067
       8 -> 25         0.15154
      11 -> 29         0.17694
      13 -> 35         0.11166

 Excited State 107:      Singlet-A"    16.4593 eV   75.33 nm  f=0.0030  <S**2>=0.000
       7 -> 24        -0.17498

 The electronic state is 1-A'.
 Alpha  occ. eigenvalues --  -24.28451  -9.99837  -9.92678  -1.06655  -0.68397
 Alpha  occ. eigenvalues --   -0.55960  -0.44444  -0.44161  -0.39907  -0.35003
 Alpha  occ. eigenvalues --   -0.34743  -0.28991  -0.28392
 Alpha virt. eigenvalues --    0.00357   0.03229   0.05032   0.05743   0.07796
 Alpha virt. eigenvalues --    0.09962   0.10198   0.11971   0.13209   0.14980
 Alpha virt. eigenvalues --    0.15881   0.16769   0.20211   0.21154   0.23076

 Mulliken charges:
               1
     1  C    0.614569
     2  C    0.717365
     3  F   -0.420512
     4  H   -0.128866
     5  H   -0.125645
     6  H   -0.125645
     7  H   -0.265633
     8  H   -0.265633
 Sum of Mulliken charges =  -0.00000

 Dipole moment (field-independent basis, Debye):
    X=             -1.7840    Y=              0.6939    Z=              0.0000  Tot=              1.9142
 Quadrupole moment (field-independent basis, Debye-Ang):
   XX=            -21.3075   YY=            -18.7132   ZZ=            -18.6746
   XY=              0.2878   XZ=              0.0000   YZ=              0.0000

 Normal termination of Gaussian 16 at Mon Mar 21 19:59:41 2022.
