 Gaussian 16, Revision C.01,
 Gaussian 16:  EM64L-G16RevC.01  3-Jul-2019

 --------------------------------------------------------------------
 #P TD(Nstates=10000) blyp/Gen SCF(maxcycles=100) Int(Grid=ultrafine)
 --------------------------------------------------------------------

 ---------------------
 xGDB7_00001_tier4.com
 ---------------------
 Symbolic Z-matrix:
 Charge =  0 Multiplicity = 1

                         Standard orientation:
 ---------------------------------------------------------------------
 Center     Atomic      Atomic             Coordinates (Angstroms)
 Number     Number       Type             X           Y           Z
 ---------------------------------------------------------------------
      1          6           0       -0.000001    0.000006    0.000000
      2          1           0       -0.991926    0.448073    0.033817
      3          1           0        0.066172   -0.671147   -0.854975
      4          1           0        0.176250   -0.561167    0.916416
      5          1           0        0.749514    0.784204   -0.095260
 ---------------------------------------------------------------------

 SCF Done:  E(RB-LYP) =  -40.4510302643     A.U. after    9 cycles

 Excitation energies and oscillator strengths:

 Excited State   1:      Singlet-A      9.7859 eV  126.70 nm  f=0.1115  <S**2>=0.000
       5 ->  6         0.70565
 This state for optimization and/or second-order correction.
 Total Energy, E(TD-HF/TD-DFT) =  -40.0914041091
 Copying the excited state density for this state as the 1-particle RhoCI density.

 Excited State   2:      Singlet-A      9.7860 eV  126.69 nm  f=0.1115  <S**2>=0.000
       4 ->  6         0.70561

 Excited State   3:      Singlet-A      9.7861 eV  126.69 nm  f=0.1115  <S**2>=0.000
       3 ->  6         0.70562

 Excited State   4:      Singlet-A     12.1088 eV  102.39 nm  f=0.0000  <S**2>=0.000
       4 ->  7         0.15728
       4 ->  8        -0.26182
       4 ->  9         0.38807
       5 ->  7        -0.25355
       5 ->  8         0.30358
       5 ->  9         0.30605

 Excited State   5:      Singlet-A     12.1088 eV  102.39 nm  f=0.0000  <S**2>=0.000
       3 ->  7         0.16618
       3 ->  8        -0.29361
       3 ->  9         0.36019
       5 ->  7         0.40253
       5 ->  8         0.29145

 Excited State   6:      Singlet-A     12.1089 eV  102.39 nm  f=0.0000  <S**2>=0.000
       3 ->  7         0.17511
       3 ->  8        -0.32176
       3 ->  9        -0.33988
       4 ->  7         0.43154
       4 ->  8         0.24890

 Excited State   7:      Singlet-A     12.1771 eV  101.82 nm  f=0.0000  <S**2>=0.000
       3 ->  7        -0.11654
       3 ->  8         0.21457
       3 ->  9        -0.39135
       4 ->  7        -0.12482
       4 ->  8         0.12364
       5 ->  7         0.43787
       5 ->  8         0.15612
       5 ->  9         0.16903

 Excited State   8:      Singlet-A     12.1771 eV  101.82 nm  f=0.0000  <S**2>=0.000
       3 ->  7        -0.21623
       3 ->  8        -0.23453
       3 ->  9         0.12293
       4 ->  7        -0.22825
       4 ->  8         0.40751
       4 ->  9         0.27338
       5 ->  8        -0.14970
       5 ->  9         0.22953

 Excited State   9:      Singlet-A     12.3033 eV  100.77 nm  f=0.1244  <S**2>=0.000
       3 ->  7        -0.12359
       4 ->  8         0.17498
       4 ->  9        -0.39622
       5 ->  7        -0.21553
       5 ->  8         0.42715

 Excited State  10:      Singlet-A     12.3034 eV  100.77 nm  f=0.1244  <S**2>=0.000
       3 ->  7         0.41855
       3 ->  8         0.16700
       3 -> 10        -0.12348
       4 ->  9        -0.15692
       5 ->  8        -0.14942
       5 ->  9         0.43496

 Excited State  11:      Singlet-A     12.3034 eV  100.77 nm  f=0.1244  <S**2>=0.000
       3 ->  7        -0.19528
       3 ->  8         0.34782
       3 ->  9         0.25828
       3 -> 12         0.12344
       4 ->  7         0.40542
       4 ->  8         0.24453
       4 -> 10        -0.11708

 Excited State  12:      Singlet-A     12.9721 eV   95.58 nm  f=0.0000  <S**2>=0.000
       3 ->  7        -0.23351
       3 ->  8        -0.12939
       3 -> 10        -0.25571
       3 -> 11         0.12746
       3 -> 12        -0.10018
       4 ->  7         0.10052
       4 ->  8        -0.18420
       4 ->  9        -0.16501
       4 -> 11         0.10620
       4 -> 12         0.27774
       5 ->  8        -0.14351
       5 ->  9         0.20984
       5 -> 10         0.15240
       5 -> 11         0.25323

 Excited State  13:      Singlet-A     13.0031 eV   95.35 nm  f=0.0000  <S**2>=0.000
       3 -> 11        -0.10459
       4 -> 10        -0.26625
       4 -> 11        -0.39500
       5 -> 10        -0.18647
       5 -> 11         0.21864
       5 -> 12         0.40793

 Excited State  14:      Singlet-A     13.0032 eV   95.35 nm  f=0.0000  <S**2>=0.000
       3 -> 10         0.24458
       3 -> 11         0.40536
       3 -> 12        -0.10765
       5 -> 10         0.39022
       5 -> 11        -0.16489
       5 -> 12         0.26615

 Excited State  15:      Singlet-A     13.0032 eV   95.35 nm  f=0.0000  <S**2>=0.000
       3 -> 11         0.17159
       3 -> 12         0.45882
       4 -> 10         0.40826
       4 -> 11        -0.23180
       4 -> 12         0.17076

 Excited State  16:      Singlet-A     13.0537 eV   94.98 nm  f=0.0000  <S**2>=0.000
       3 -> 10        -0.23536
       3 -> 11        -0.36844
       3 -> 12         0.14797
       4 -> 12        -0.16886
       5 -> 10         0.48656

 Excited State  17:      Singlet-A     13.0538 eV   94.98 nm  f=0.0000  <S**2>=0.000
       3 -> 10         0.17866
       3 -> 11        -0.26049
       3 -> 12         0.13080
       4 -> 11         0.24818
       4 -> 12         0.47767
       5 -> 11        -0.23409
       5 -> 12         0.17015

 Excited State  18:      Singlet-A     13.4622 eV   92.10 nm  f=0.0144  <S**2>=0.000
       3 -> 13         0.15718
       3 -> 14         0.37006
       4 -> 10         0.17490
       4 -> 11         0.28240
       4 -> 12        -0.15048
       5 -> 11         0.20954
       5 -> 12         0.30573
       5 -> 13         0.20668

 Excited State  19:      Singlet-A     13.4622 eV   92.10 nm  f=0.0144  <S**2>=0.000
       3 -> 10        -0.34449
       3 -> 11         0.12288
       4 -> 13         0.42952
       4 -> 14        -0.13059
       5 -> 10        -0.12814
       5 -> 11        -0.29597
       5 -> 12         0.15005

 Excited State  20:      Singlet-A     13.4623 eV   92.10 nm  f=0.0144  <S**2>=0.000
       3 -> 11        -0.13065
       3 -> 12        -0.34384
       3 -> 13         0.22193
       4 -> 10         0.31995
       4 -> 11        -0.13139
       5 -> 13         0.10183
       5 -> 14         0.37930

 Excited State  21:      Singlet-A     13.7168 eV   90.39 nm  f=0.0000  <S**2>=0.000
       3 -> 13        -0.17833
       3 -> 14        -0.29280
       5 -> 13         0.60972

 Excited State  22:      Singlet-A     13.7169 eV   90.39 nm  f=0.0000  <S**2>=0.000
       3 -> 13        -0.41207
       3 -> 14         0.21812
       4 -> 13         0.13046
       4 -> 14         0.41531
       5 -> 14         0.30219

 Excited State  23:      Singlet-A     13.7169 eV   90.39 nm  f=0.0000  <S**2>=0.000
       3 -> 13         0.35023
       3 -> 14        -0.20410
       4 -> 13         0.17532
       4 -> 14         0.52426
       5 -> 14        -0.17071

 Excited State  24:      Singlet-A     14.1002 eV   87.93 nm  f=0.0000  <S**2>=0.000
       2 ->  6        -0.16459
       3 ->  7         0.24377
       3 ->  8         0.13507
       3 -> 10        -0.22752
       3 -> 11         0.11345
       4 ->  7        -0.10494
       4 ->  8         0.19230
       4 ->  9         0.17228
       4 -> 12         0.24731
       5 ->  8         0.14982
       5 ->  9        -0.21904
       5 -> 10         0.13544
       5 -> 11         0.22532

 Excited State  25:      Singlet-A     14.3736 eV   86.26 nm  f=0.6554  <S**2>=0.000
       3 -> 11         0.11250
       3 -> 12         0.27199
       3 -> 13         0.24939
       4 ->  7        -0.10679
       4 -> 10        -0.25573
       4 -> 11         0.11303
       5 -> 13         0.10646
       5 -> 14         0.43320

 Excited State  26:      Singlet-A     14.3737 eV   86.26 nm  f=0.6554  <S**2>=0.000
       3 ->  7         0.10576
       3 -> 10         0.27505
       4 -> 13         0.48950
       4 -> 14        -0.15535
       5 -> 11         0.26350

 Excited State  27:      Singlet-A     14.3737 eV   86.26 nm  f=0.6554  <S**2>=0.000
       3 -> 13         0.17244
       3 -> 14         0.41476
       4 ->  9        -0.11152
       4 -> 10        -0.13850
       4 -> 11        -0.23016
       4 -> 12         0.12239
       5 -> 11        -0.12570
       5 -> 12        -0.26098
       5 -> 13         0.23831
       5 -> 14        -0.10664

 Excited State  28:      Singlet-A     16.7571 eV   73.99 nm  f=0.1075  <S**2>=0.000
       5 -> 15         0.68714

 Excited State  29:      Singlet-A     16.7572 eV   73.99 nm  f=0.1075  <S**2>=0.000
       4 -> 15         0.68694

 Excited State  30:      Singlet-A     16.7572 eV   73.99 nm  f=0.1075  <S**2>=0.000
       3 -> 15         0.68703

 Excited State  31:      Singlet-A     17.4052 eV   71.23 nm  f=0.0000  <S**2>=0.000
       2 ->  6         0.65975
       5 -> 20         0.11475

 Excited State  32:      Singlet-A     18.1669 eV   68.25 nm  f=0.0153  <S**2>=0.000
       3 -> 18        -0.16259
       4 -> 19        -0.16274
       5 -> 16         0.65715

 Excited State  33:      Singlet-A     18.1670 eV   68.25 nm  f=0.0153  <S**2>=0.000
       3 -> 17        -0.16178
       4 -> 16         0.65707
       5 -> 19         0.16306

 Excited State  34:      Singlet-A     18.1670 eV   68.25 nm  f=0.0153  <S**2>=0.000
       3 -> 16         0.65705
       4 -> 17         0.16196
       5 -> 18         0.16307

 Excited State  35:      Singlet-A     18.3638 eV   67.52 nm  f=0.0000  <S**2>=0.000
       3 -> 17         0.45764
       4 -> 18        -0.17625
       5 -> 17        -0.12350
       5 -> 19         0.47643

 Excited State  36:      Singlet-A     18.3638 eV   67.52 nm  f=0.0000  <S**2>=0.000
       3 -> 17         0.19594
       3 -> 19         0.27318
       4 -> 18         0.53903
       5 -> 17         0.26363
       5 -> 19         0.12593

 Excited State  37:      Singlet-A     18.3788 eV   67.46 nm  f=0.0000  <S**2>=0.000
       4 -> 17        -0.48291
       5 -> 18         0.48958

 Excited State  38:      Singlet-A     18.3789 eV   67.46 nm  f=0.0000  <S**2>=0.000
       3 -> 19         0.48402
       5 -> 17        -0.48371

 Excited State  39:      Singlet-A     18.3790 eV   67.46 nm  f=0.0000  <S**2>=0.000
       3 -> 18         0.48402
       4 -> 19        -0.48191

 Excited State  40:      Singlet-A     18.4089 eV   67.35 nm  f=0.0249  <S**2>=0.000
       3 -> 16        -0.23963
       4 -> 17         0.46000
       5 -> 18         0.46068

 Excited State  41:      Singlet-A     18.4089 eV   67.35 nm  f=0.0249  <S**2>=0.000
       3 -> 17        -0.45901
       4 -> 16        -0.23972
       5 -> 19         0.46094

 Excited State  42:      Singlet-A     18.4089 eV   67.35 nm  f=0.0249  <S**2>=0.000
       3 -> 18         0.46106
       4 -> 19         0.46259
       5 -> 16         0.23958

 Excited State  43:      Singlet-A     18.4697 eV   67.13 nm  f=0.0000  <S**2>=0.000
       3 -> 19         0.40180
       4 -> 18        -0.40128
       5 -> 17         0.39852

 Excited State  44:      Singlet-A     18.8731 eV   65.69 nm  f=0.0000  <S**2>=0.000
       4 -> 20         0.48025
       4 -> 21         0.10300
       5 -> 21         0.30406
       5 -> 22         0.37716

 Excited State  45:      Singlet-A     18.8731 eV   65.69 nm  f=0.0000  <S**2>=0.000
       3 -> 20         0.48006
       5 -> 21        -0.37476
       5 -> 22         0.31785

 Excited State  46:      Singlet-A     18.8732 eV   65.69 nm  f=0.0000  <S**2>=0.000
       3 -> 21         0.28156
       3 -> 22         0.39911
       4 -> 21         0.39534
       4 -> 22        -0.28886

 Excited State  47:      Singlet-A     18.8847 eV   65.65 nm  f=0.0000  <S**2>=0.000
       3 -> 20         0.43930
       3 -> 21         0.13553
       4 -> 21        -0.12997
       4 -> 22        -0.11262
       5 -> 20        -0.23658
       5 -> 21         0.29574
       5 -> 22        -0.31892

 Excited State  48:      Singlet-A     18.8848 eV   65.65 nm  f=0.0000  <S**2>=0.000
       3 -> 20         0.11148
       3 -> 21         0.27638
       3 -> 22        -0.17268
       4 -> 20        -0.17097
       4 -> 21         0.28897
       4 -> 22         0.42692
       5 -> 20         0.18992
       5 -> 21         0.21939

 Excited State  49:      Singlet-A     19.5047 eV   63.57 nm  f=0.0000  <S**2>=0.000
       3 -> 21         0.24712
       3 -> 22        -0.18216
       3 -> 25        -0.24021
       4 -> 21        -0.17643
       4 -> 22        -0.25348
       4 -> 24        -0.22994
       5 -> 20         0.30957
       5 -> 23        -0.22639

 Excited State  50:      Singlet-A     19.5124 eV   63.54 nm  f=0.2348  <S**2>=0.000
       2 ->  8         0.22245
       2 ->  9        -0.18273
       3 -> 21        -0.10274
       4 -> 20         0.35924
       4 -> 21         0.13341
       5 -> 20         0.27021
       5 -> 21        -0.15494
       5 -> 22        -0.30785

 Excited State  51:      Singlet-A     19.5124 eV   63.54 nm  f=0.2348  <S**2>=0.000
       2 ->  7        -0.12061
       2 ->  8         0.14863
       2 ->  9         0.22532
       3 -> 20         0.14133
       3 -> 21        -0.29668
       3 -> 22         0.24320
       4 -> 20        -0.15805
       5 -> 20         0.31021
       5 -> 21         0.24497
       5 -> 22         0.10833

 Excited State  52:      Singlet-A     19.5125 eV   63.54 nm  f=0.2348  <S**2>=0.000
       2 ->  7         0.26147
       2 ->  8         0.12582
       3 -> 20        -0.11641
       3 -> 21         0.23337
       3 -> 22         0.33732
       4 -> 21        -0.32688
       4 -> 22         0.26556

 Excited State  53:      Singlet-A     19.9559 eV   62.13 nm  f=0.0039  <S**2>=0.000
       2 ->  7        -0.27774
       2 ->  8         0.52318
       2 ->  9        -0.18237
       3 -> 21         0.10402
       4 -> 20        -0.12072
       4 -> 26        -0.10136
       5 -> 20        -0.16760
       5 -> 22         0.11110

 Excited State  54:      Singlet-A     19.9559 eV   62.13 nm  f=0.0039  <S**2>=0.000
       2 ->  7        -0.38402
       2 ->  9         0.48521
       3 -> 21         0.13728
       4 -> 20         0.13310
       5 -> 21        -0.12436

 Excited State  55:      Singlet-A     19.9560 eV   62.13 nm  f=0.0039  <S**2>=0.000
       2 ->  7         0.39935
       2 ->  8         0.33043
       2 ->  9         0.33975
       3 -> 22        -0.18254
       4 -> 21         0.15077
       5 -> 27         0.12714

 Excited State  56:      Singlet-A     20.3004 eV   61.07 nm  f=0.0000  <S**2>=0.000
       4 -> 23        -0.46067
       4 -> 24         0.17757
       5 -> 23         0.18175
       5 -> 24         0.46220

 Excited State  57:      Singlet-A     20.3004 eV   61.07 nm  f=0.0000  <S**2>=0.000
       3 -> 23        -0.46984
       3 -> 24         0.12675
       5 -> 25         0.48640

 Excited State  58:      Singlet-A     20.3005 eV   61.07 nm  f=0.0000  <S**2>=0.000
       3 -> 23        -0.12258
       3 -> 24        -0.47794
       4 -> 25         0.48981

 Excited State  59:      Singlet-A     20.3637 eV   60.88 nm  f=0.0000  <S**2>=0.000
       3 -> 23         0.41296
       3 -> 24        -0.21402
       4 -> 24         0.11524
       5 -> 24         0.12537
       5 -> 25         0.47896

 Excited State  60:      Singlet-A     20.3637 eV   60.88 nm  f=0.0000  <S**2>=0.000
       3 -> 23        -0.18541
       3 -> 25        -0.26817
       4 -> 23         0.25613
       4 -> 24         0.47789
       5 -> 23        -0.22400
       5 -> 24         0.15340

 Excited State  61:      Singlet-A     20.3894 eV   60.81 nm  f=0.0239  <S**2>=0.000
       2 -> 11         0.17127
       3 -> 25        -0.11014
       4 -> 23         0.38194
       4 -> 24        -0.24272
       5 -> 23         0.33400
       5 -> 24         0.34241

 Excited State  62:      Singlet-A     20.3895 eV   60.81 nm  f=0.0239  <S**2>=0.000
       2 -> 12        -0.16888
       3 -> 24         0.14467
       3 -> 25         0.43938
       4 -> 23         0.14141
       5 -> 23        -0.35886
       5 -> 24         0.28059

 Excited State  63:      Singlet-A     20.3896 eV   60.81 nm  f=0.0239  <S**2>=0.000
       2 -> 10         0.16195
       3 -> 23         0.19618
       3 -> 24         0.40363
       3 -> 25        -0.15549
       4 -> 25         0.45729

 Excited State  64:      Singlet-A     20.6926 eV   59.92 nm  f=0.0134  <S**2>=0.000
       2 -> 10         0.66993
       3 -> 24        -0.10738
       4 -> 25        -0.11037

 Excited State  65:      Singlet-A     20.6927 eV   59.92 nm  f=0.0134  <S**2>=0.000
       2 -> 11         0.66112
       2 -> 12         0.12083
       5 -> 23        -0.11254

 Excited State  66:      Singlet-A     20.6927 eV   59.92 nm  f=0.0134  <S**2>=0.000
       2 -> 11        -0.11578
       2 -> 12         0.66331
       3 -> 25         0.10358

 Excited State  67:      Singlet-A     21.2619 eV   58.31 nm  f=0.0000  <S**2>=0.000
       2 -> 13         0.70161

 Excited State  68:      Singlet-A     21.2620 eV   58.31 nm  f=0.0000  <S**2>=0.000
       2 -> 14         0.70161

 Excited State  69:      Singlet-A     21.6209 eV   57.34 nm  f=0.0000  <S**2>=0.000
       2 ->  6        -0.12891
       2 -> 15        -0.26386
       2 -> 16        -0.10675
       3 -> 21         0.14865
       3 -> 22        -0.10965
       3 -> 25         0.28996
       4 -> 21        -0.10490
       4 -> 22        -0.15061
       4 -> 23         0.10277
       4 -> 24         0.27674
       5 -> 20         0.18153
       5 -> 23         0.27152
       5 -> 24        -0.10850

 Excited State  70:      Singlet-A     22.0763 eV   56.16 nm  f=0.0000  <S**2>=0.000
       3 -> 26        -0.22517
       3 -> 27        -0.26502
       5 -> 26         0.60993

 Excited State  71:      Singlet-A     22.0764 eV   56.16 nm  f=0.0000  <S**2>=0.000
       3 -> 26         0.49044
       3 -> 27        -0.30682
       4 -> 27        -0.19623
       5 -> 27        -0.34924

 Excited State  72:      Singlet-A     22.0764 eV   56.16 nm  f=0.0000  <S**2>=0.000
       3 -> 26         0.17526
       3 -> 27        -0.11572
       4 -> 26         0.21804
       4 -> 27         0.63678

 Excited State  73:      Singlet-A     22.8719 eV   54.21 nm  f=0.3829  <S**2>=0.000
       3 -> 26         0.25095
       3 -> 27        -0.21482
       5 -> 27         0.57866

 Excited State  74:      Singlet-A     22.8719 eV   54.21 nm  f=0.3829  <S**2>=0.000
       3 -> 26         0.28727
       3 -> 27         0.45331
       4 -> 26         0.21925
       5 -> 26         0.32867

 Excited State  75:      Singlet-A     22.8719 eV   54.21 nm  f=0.3829  <S**2>=0.000
       3 -> 26        -0.12113
       3 -> 27        -0.19596
       4 -> 26         0.59254
       4 -> 27        -0.20414
       5 -> 20        -0.10073

 Excited State  76:      Singlet-A     24.5465 eV   50.51 nm  f=0.0000  <S**2>=0.000
       2 -> 15         0.60441
       2 -> 16        -0.29741

 Excited State  77:      Singlet-A     25.8317 eV   48.00 nm  f=0.0000  <S**2>=0.000
       2 -> 17         0.70697

 Excited State  78:      Singlet-A     25.8317 eV   48.00 nm  f=0.0000  <S**2>=0.000
       2 -> 18         0.70697

 Excited State  79:      Singlet-A     25.8318 eV   48.00 nm  f=0.0000  <S**2>=0.000
       2 -> 19         0.70697

 Excited State  80:      Singlet-A     26.1880 eV   47.34 nm  f=0.0000  <S**2>=0.000
       2 -> 15         0.22482
       2 -> 16         0.62437

 Excited State  81:      Singlet-A     26.6859 eV   46.46 nm  f=0.0017  <S**2>=0.000
       2 -> 20         0.68785
       2 -> 23        -0.10104

 Excited State  82:      Singlet-A     26.6860 eV   46.46 nm  f=0.0017  <S**2>=0.000
       2 -> 21         0.51270
       2 -> 22         0.46345
       2 -> 24         0.10083

 Excited State  83:      Singlet-A     26.6860 eV   46.46 nm  f=0.0017  <S**2>=0.000
       2 -> 21        -0.45884
       2 -> 22         0.51497

 Excited State  84:      Singlet-A     27.8872 eV   44.46 nm  f=0.0153  <S**2>=0.000
       2 -> 23         0.69679

 Excited State  85:      Singlet-A     27.8873 eV   44.46 nm  f=0.0153  <S**2>=0.000
       2 -> 24         0.69685

 Excited State  86:      Singlet-A     27.8874 eV   44.46 nm  f=0.0153  <S**2>=0.000
       2 -> 25         0.69676

 Excited State  87:      Singlet-A     29.6667 eV   41.79 nm  f=0.0000  <S**2>=0.000
       2 -> 27         0.61371
       3 -> 28        -0.23007
       5 -> 28         0.10932
       5 -> 29        -0.12325
       5 -> 30         0.18488

 Excited State  88:      Singlet-A     29.6667 eV   41.79 nm  f=0.0000  <S**2>=0.000
       2 -> 26         0.61374
       3 -> 30         0.12968
       4 -> 29         0.23304
       4 -> 30         0.13949
       5 -> 28        -0.11467

 Excited State  89:      Singlet-A     29.8360 eV   41.56 nm  f=0.0000  <S**2>=0.000
       3 -> 28         0.11396
       4 -> 28         0.48213
       5 -> 29        -0.47269
       5 -> 30        -0.14834

 Excited State  90:      Singlet-A     29.8360 eV   41.56 nm  f=0.0000  <S**2>=0.000
       3 -> 28         0.48424
       4 -> 28        -0.11707
       5 -> 29        -0.14672
       5 -> 30         0.47599

 Excited State  91:      Singlet-A     29.8362 eV   41.55 nm  f=0.0000  <S**2>=0.000
       3 -> 29         0.42872
       3 -> 30         0.25469
       4 -> 29        -0.25471
       4 -> 30         0.42864

 Excited State  92:      Singlet-A     30.2166 eV   41.03 nm  f=0.0000  <S**2>=0.000
       2 -> 27         0.34921
       3 -> 28         0.40076

 The electronic state is 1-A.
 Alpha  occ. eigenvalues --   -9.91067  -0.61569  -0.34425  -0.34425  -0.34424
 Alpha virt. eigenvalues --    0.00959   0.10067   0.10067   0.10067   0.13431
 Alpha virt. eigenvalues --    0.13431   0.13431   0.16137   0.16137   0.26165
 Alpha virt. eigenvalues --    0.32403   0.33451   0.33451   0.33452   0.35048

 Mulliken charges:
               1
     1  C    0.715197
     2  H   -0.178776
     3  H   -0.178811
     4  H   -0.178822
     5  H   -0.178788
 Sum of Mulliken charges =  -0.00000

 Dipole moment (field-independent basis, Debye):
    X=              0.0000    Y=             -0.0000    Z=              0.0000  Tot=              0.0000
 Quadrupole moment (field-independent basis, Debye-Ang):
   XX=             -8.5749   YY=             -8.5750   ZZ=             -8.5751
   XY=              0.0000   XZ=              0.0000   YZ=             -0.0000

 Normal termination of Gaussian 16 at Mon Mar 21 19:58:30 2022.
