 Gaussian 16, Revision C.01,
 Gaussian 16:  EM64L-G16RevC.01  3-Jul-2019

 ----------------------------------------------------------------------
 #P TD(Nstates=10000) lc-whpbe/Gen SCF(maxcycles=100) Int(Grid=ultrafin
 e)
 ----------------------------------------------------------------------

 ---------------------
 xGDB7_00001_tier4.com
 ---------------------
 Symbolic Z-matrix:
 Charge =  0 Multiplicity = 1

                         Standard orientation:
 ---------------------------------------------------------------------
 Center     Atomic      Atomic             Coordinates (Angstroms)
 Number     Number       Type             X           Y           Z
 ---------------------------------------------------------------------
      1          6           0        0.630149   -0.000001   -0.000003
      2          9           0       -0.748512    0.000002    0.000001
      3          1           0        0.985250    0.897475   -0.509314
      4          1           0        0.985222   -0.889832   -0.522562
      5          1           0        0.985245   -0.007652    1.031883
 ---------------------------------------------------------------------

 SCF Done:  E(RLC-wHPBE) =  -139.570485246     A.U. after   11 cycles

 Excitation energies and oscillator strengths:

 Excited State   1:      Singlet-A      9.6910 eV  127.94 nm  f=0.0117  <S**2>=0.000
       9 -> 10         0.56283
       9 -> 11        -0.39059
       9 -> 14         0.11954
 This state for optimization and/or second-order correction.
 Total Energy, E(TD-HF/TD-DFT) =  -139.214346888
 Copying the excited state density for this state as the 1-particle RhoCI density.

 Excited State   2:      Singlet-A      9.6911 eV  127.94 nm  f=0.0117  <S**2>=0.000
       8 -> 10         0.56283
       8 -> 11        -0.39059
       8 -> 14         0.11953

 Excited State   3:      Singlet-A     10.4264 eV  118.91 nm  f=0.0410  <S**2>=0.000
       9 -> 10         0.40227
       9 -> 11         0.54621
       9 -> 20        -0.11237

 Excited State   4:      Singlet-A     10.4265 eV  118.91 nm  f=0.0410  <S**2>=0.000
       8 -> 10         0.40227
       8 -> 11         0.54620
       8 -> 20        -0.11237

 Excited State   5:      Singlet-A     11.9190 eV  104.02 nm  f=0.0431  <S**2>=0.000
       8 -> 12         0.20023
       8 -> 13         0.44623
       9 -> 12         0.44658
       9 -> 13        -0.20024

 Excited State   6:      Singlet-A     11.9190 eV  104.02 nm  f=0.0431  <S**2>=0.000
       8 -> 12        -0.44636
       8 -> 13         0.20016
       9 -> 12         0.20030
       9 -> 13         0.44645

 Excited State   7:      Singlet-A     12.0062 eV  103.27 nm  f=0.0000  <S**2>=0.000
       8 -> 13         0.48570
       9 -> 12        -0.48532

 Excited State   8:      Singlet-A     12.0711 eV  102.71 nm  f=0.1261  <S**2>=0.000
       8 -> 12         0.48232
       9 -> 13         0.48223

 Excited State   9:      Singlet-A     12.7522 eV   97.23 nm  f=0.0517  <S**2>=0.000
       7 -> 10        -0.17772
       7 -> 11         0.20779
       8 -> 16        -0.10228
       9 -> 11         0.13213
       9 -> 14         0.60146
       9 -> 15         0.10220

 Excited State  10:      Singlet-A     12.7522 eV   97.23 nm  f=0.0517  <S**2>=0.000
       6 -> 10        -0.17771
       6 -> 11         0.20778
       8 -> 11         0.13212
       8 -> 14         0.60145
       9 -> 16        -0.10609

 Excited State  11:      Singlet-A     12.7543 eV   97.21 nm  f=0.0000  <S**2>=0.000
       8 -> 15         0.48645
       9 -> 16        -0.48471

 Excited State  12:      Singlet-A     13.2449 eV   93.61 nm  f=0.1169  <S**2>=0.000
       8 -> 14        -0.14524
       8 -> 15        -0.30447
       8 -> 16        -0.35039
       9 -> 14        -0.10388
       9 -> 15         0.35093
       9 -> 16        -0.30446

 Excited State  13:      Singlet-A     13.2449 eV   93.61 nm  f=0.1169  <S**2>=0.000
       8 -> 14         0.10389
       8 -> 15         0.35064
       8 -> 16        -0.30419
       9 -> 14        -0.14523
       9 -> 15         0.30475
       9 -> 16         0.35068

 Excited State  14:      Singlet-A     13.2964 eV   93.25 nm  f=0.0077  <S**2>=0.000
       8 -> 16         0.47673
       9 -> 15         0.47597

 Excited State  15:      Singlet-A     13.8388 eV   89.59 nm  f=0.0671  <S**2>=0.000
       7 -> 10         0.49295
       7 -> 11        -0.11726
       7 -> 14         0.12358
       8 -> 17         0.26249
       9 -> 14         0.18358
       9 -> 18        -0.26250

 Excited State  16:      Singlet-A     13.8388 eV   89.59 nm  f=0.0670  <S**2>=0.000
       6 -> 10         0.49285
       6 -> 11        -0.11721
       6 -> 14         0.12355
       8 -> 14         0.18354
       8 -> 18         0.26235
       9 -> 17         0.26284

 Excited State  17:      Singlet-A     13.8951 eV   89.23 nm  f=0.0000  <S**2>=0.000
       6 -> 13        -0.11687
       7 -> 12         0.11694
       8 -> 18        -0.47586
       9 -> 17         0.47627

 Excited State  18:      Singlet-A     13.9409 eV   88.94 nm  f=0.0652  <S**2>=0.000
       7 -> 10        -0.32397
       7 -> 11         0.19748
       8 -> 16         0.10490
       8 -> 17         0.36079
       9 -> 14        -0.11163
       9 -> 15        -0.10487
       9 -> 18        -0.36077

 Excited State  19:      Singlet-A     13.9409 eV   88.94 nm  f=0.0652  <S**2>=0.000
       6 -> 10        -0.32412
       6 -> 11         0.19749
       8 -> 14        -0.11167
       8 -> 15         0.10490
       8 -> 18         0.36113
       9 -> 16         0.10490
       9 -> 17         0.36028

 Excited State  20:      Singlet-A     14.0839 eV   88.03 nm  f=0.0446  <S**2>=0.000
       5 -> 10         0.61316
       5 -> 11        -0.32157

 Excited State  21:      Singlet-A     14.3284 eV   86.53 nm  f=0.0001  <S**2>=0.000
       7 -> 10         0.24570
       7 -> 11         0.54787
       7 -> 14        -0.13847
       7 -> 20        -0.11800
       9 -> 19         0.18340
       9 -> 20        -0.17468

 Excited State  22:      Singlet-A     14.3285 eV   86.53 nm  f=0.0001  <S**2>=0.000
       6 -> 10         0.24569
       6 -> 11         0.54788
       6 -> 14        -0.13847
       6 -> 20        -0.11800
       8 -> 19         0.18340
       8 -> 20        -0.17468

 Excited State  23:      Singlet-A     14.5054 eV   85.47 nm  f=0.0002  <S**2>=0.000
       5 -> 10        -0.14966
       5 -> 11        -0.28665
       8 -> 17         0.42312
       9 -> 18         0.42312

 Excited State  24:      Singlet-A     15.1493 eV   81.84 nm  f=0.4864  <S**2>=0.000
       5 -> 10         0.28171
       5 -> 11         0.51462
       5 -> 14         0.10390
       8 -> 16        -0.10193
       8 -> 17         0.21843
       9 -> 15        -0.10193
       9 -> 18         0.21843

 Excited State  25:      Singlet-A     15.4707 eV   80.14 nm  f=0.0033  <S**2>=0.000
       5 -> 13        -0.12980
       6 -> 12        -0.12575
       7 -> 10        -0.17077
       7 -> 11        -0.16274
       7 -> 13         0.12572
       9 -> 11        -0.10872
       9 -> 14         0.11951
       9 -> 19         0.47195
       9 -> 20        -0.33365

 Excited State  26:      Singlet-A     15.4708 eV   80.14 nm  f=0.0033  <S**2>=0.000
       5 -> 12        -0.12973
       6 -> 10        -0.17077
       6 -> 11        -0.16274
       6 -> 13        -0.12577
       7 -> 12        -0.12582
       8 -> 11        -0.10872
       8 -> 14         0.11951
       8 -> 19         0.47194
       8 -> 20        -0.33365

 Excited State  27:      Singlet-A     15.9617 eV   77.68 nm  f=0.1032  <S**2>=0.000
       5 -> 12         0.43755
       6 -> 12         0.11722
       6 -> 13         0.29247
       7 -> 12         0.29305
       7 -> 13        -0.11699
       8 -> 19         0.17465

 Excited State  28:      Singlet-A     15.9617 eV   77.68 nm  f=0.1032  <S**2>=0.000
       5 -> 13         0.43778
       6 -> 12         0.29266
       6 -> 13        -0.11689
       7 -> 12        -0.11720
       7 -> 13        -0.29259
       9 -> 19         0.17463

 Excited State  29:      Singlet-A     16.0207 eV   77.39 nm  f=0.0000  <S**2>=0.000
       6 -> 12        -0.11596
       6 -> 13         0.43762
       6 -> 15         0.15459
       7 -> 12        -0.43739
       7 -> 13        -0.11594
       7 -> 16        -0.15457

 Excited State  30:      Singlet-A     16.0826 eV   77.09 nm  f=0.0000  <S**2>=0.000
       5 -> 12        -0.16455
       5 -> 13         0.48189
       6 -> 12        -0.27960
       6 -> 13         0.15698
       7 -> 12         0.15674
       7 -> 13         0.27977

 Excited State  31:      Singlet-A     16.0826 eV   77.09 nm  f=0.0000  <S**2>=0.000
       5 -> 12         0.48212
       5 -> 13         0.16458
       6 -> 12        -0.15666
       6 -> 13        -0.27964
       7 -> 12        -0.27938
       7 -> 13         0.15694

 Excited State  32:      Singlet-A     16.3554 eV   75.81 nm  f=0.0280  <S**2>=0.000
       5 -> 11        -0.11838
       6 -> 12         0.42776
       6 -> 13         0.11338
       6 -> 16         0.15512
       7 -> 12        -0.11334
       7 -> 13         0.42768
       7 -> 15         0.15513

 Excited State  33:      Singlet-A     16.6055 eV   74.66 nm  f=0.0475  <S**2>=0.000
       7 -> 11         0.13029
       7 -> 14         0.31271
       9 -> 19         0.35630
       9 -> 20         0.45996

 Excited State  34:      Singlet-A     16.6056 eV   74.66 nm  f=0.0475  <S**2>=0.000
       6 -> 11         0.13029
       6 -> 14         0.31269
       8 -> 19         0.35630
       8 -> 20         0.45997

 Excited State  35:      Singlet-A     16.7664 eV   73.95 nm  f=0.0000  <S**2>=0.000
       6 -> 13         0.13803
       6 -> 15        -0.44025
       7 -> 12        -0.13801
       7 -> 16         0.44027

 Excited State  36:      Singlet-A     16.9599 eV   73.10 nm  f=0.0275  <S**2>=0.000
       5 -> 14         0.42675
       6 -> 12         0.12261
       6 -> 16        -0.35195
       7 -> 13         0.12260
       7 -> 15        -0.35215

 Excited State  37:      Singlet-A     17.0178 eV   72.86 nm  f=0.1056  <S**2>=0.000
       5 -> 15         0.60371
       6 -> 16        -0.18101
       7 -> 15         0.18108

 Excited State  38:      Singlet-A     17.0179 eV   72.86 nm  f=0.1056  <S**2>=0.000
       5 -> 16         0.60386
       6 -> 15        -0.18093
       7 -> 16        -0.18077

 Excited State  39:      Singlet-A     17.2454 eV   71.89 nm  f=0.1431  <S**2>=0.000
       5 -> 16         0.27756
       5 -> 17        -0.11279
       6 -> 15         0.25531
       6 -> 16         0.13627
       6 -> 18        -0.16106
       7 -> 15        -0.13620
       7 -> 16         0.25534
       7 -> 17        -0.16115
       8 -> 20         0.10910
       8 -> 22         0.23910
       9 -> 21         0.23919

 Excited State  40:      Singlet-A     17.2454 eV   71.89 nm  f=0.1431  <S**2>=0.000
       5 -> 15         0.27776
       5 -> 18        -0.11290
       6 -> 15        -0.13614
       6 -> 16         0.25529
       6 -> 17        -0.16109
       7 -> 15        -0.25517
       7 -> 16        -0.13618
       7 -> 18         0.16105
       8 -> 21         0.23916
       9 -> 20         0.10912
       9 -> 22        -0.23918

 Excited State  41:      Singlet-A     17.3644 eV   71.40 nm  f=0.0456  <S**2>=0.000
       5 -> 14         0.48184
       6 -> 16         0.24727
       7 -> 15         0.24732
       8 -> 21         0.17961
       8 -> 22         0.13808
       9 -> 21        -0.13802
       9 -> 22         0.17935

 Excited State  42:      Singlet-A     17.3747 eV   71.36 nm  f=0.1011  <S**2>=0.000
       6 -> 15         0.28360
       6 -> 18         0.15858
       7 -> 16         0.28370
       7 -> 17         0.15870
       8 -> 21         0.25410
       8 -> 22        -0.20048
       8 -> 23        -0.11785
       9 -> 21        -0.20061
       9 -> 22        -0.25434

 Excited State  43:      Singlet-A     17.3747 eV   71.36 nm  f=0.1011  <S**2>=0.000
       6 -> 16         0.28370
       6 -> 17         0.15859
       7 -> 15        -0.28356
       7 -> 18        -0.15872
       8 -> 21        -0.20042
       8 -> 22        -0.25412
       9 -> 21        -0.25433
       9 -> 22         0.20063
       9 -> 23        -0.11785

 Excited State  44:      Singlet-A     17.4492 eV   71.05 nm  f=0.3141  <S**2>=0.000
       5 -> 14        -0.17077
       6 -> 12         0.10153
       6 -> 16        -0.13248
       6 -> 17        -0.22501
       7 -> 13         0.10150
       7 -> 15        -0.13234
       7 -> 18        -0.22493
       8 -> 21         0.29923
       8 -> 22         0.23019
       9 -> 21        -0.23005
       9 -> 22         0.29915

 Excited State  45:      Singlet-A     17.4541 eV   71.03 nm  f=0.0000  <S**2>=0.000
       6 -> 18        -0.23713
       7 -> 17         0.23701
       8 -> 21        -0.25177
       8 -> 22         0.32734
       9 -> 21        -0.32713
       9 -> 22        -0.25160

 Excited State  46:      Singlet-A     17.5486 eV   70.65 nm  f=0.0001  <S**2>=0.000
       7 -> 11         0.15147
       7 -> 14         0.54830
       7 -> 19        -0.12301
       9 -> 19        -0.20448
       9 -> 20        -0.28800

 Excited State  47:      Singlet-A     17.5487 eV   70.65 nm  f=0.0001  <S**2>=0.000
       6 -> 11         0.15148
       6 -> 14         0.54831
       6 -> 19        -0.12302
       8 -> 19        -0.20448
       8 -> 20        -0.28799

 Excited State  48:      Singlet-A     17.9505 eV   69.07 nm  f=0.0179  <S**2>=0.000
       7 -> 19        -0.11684
       9 -> 23         0.64730

 Excited State  49:      Singlet-A     17.9506 eV   69.07 nm  f=0.0179  <S**2>=0.000
       6 -> 19        -0.11684
       8 -> 23         0.64730

 Excited State  50:      Singlet-A     18.0951 eV   68.52 nm  f=0.0028  <S**2>=0.000
       5 -> 16         0.10975
       5 -> 17         0.65314

 Excited State  51:      Singlet-A     18.0951 eV   68.52 nm  f=0.0028  <S**2>=0.000
       5 -> 15         0.10978
       5 -> 18         0.65307

 Excited State  52:      Singlet-A     18.3116 eV   67.71 nm  f=0.0000  <S**2>=0.000
       6 -> 18        -0.40673
       7 -> 17         0.40836
       8 -> 21         0.14792
       8 -> 22        -0.19238
       9 -> 21         0.19305
       9 -> 22         0.14854

 Excited State  53:      Singlet-A     18.3357 eV   67.62 nm  f=0.0340  <S**2>=0.000
       5 -> 17         0.12575
       6 -> 17         0.18357
       6 -> 18         0.36324
       7 -> 17         0.36180
       7 -> 18        -0.18391
       8 -> 22         0.21404
       9 -> 21         0.21336
       9 -> 24        -0.11451

 Excited State  54:      Singlet-A     18.3358 eV   67.62 nm  f=0.0340  <S**2>=0.000
       5 -> 18         0.12615
       6 -> 17         0.36254
       6 -> 18        -0.18404
       7 -> 17        -0.18340
       7 -> 18        -0.36240
       8 -> 21         0.21381
       8 -> 24         0.11449
       9 -> 22        -0.21358

 Excited State  55:      Singlet-A     18.4960 eV   67.03 nm  f=0.0000  <S**2>=0.000
       5 -> 14        -0.13167
       5 -> 19        -0.12056
       5 -> 20         0.14861
       6 -> 17         0.40774
       7 -> 18         0.40770
       8 -> 21         0.15204
       8 -> 22         0.11696
       9 -> 21        -0.11692
       9 -> 22         0.15204

 Excited State  56:      Singlet-A     18.8801 eV   65.67 nm  f=0.0001  <S**2>=0.000
       9 -> 24         0.67576

 Excited State  57:      Singlet-A     18.8802 eV   65.67 nm  f=0.0001  <S**2>=0.000
       8 -> 24         0.67575

 Excited State  58:      Singlet-A     18.9378 eV   65.47 nm  f=0.0000  <S**2>=0.000
       8 -> 25         0.46911
       9 -> 26         0.46924

 Excited State  59:      Singlet-A     19.0218 eV   65.18 nm  f=0.0592  <S**2>=0.000
       7 -> 19        -0.21353
       7 -> 20         0.13036
       8 -> 25         0.27951
       8 -> 26         0.31726
       9 -> 25         0.31755
       9 -> 26        -0.27950

 Excited State  60:      Singlet-A     19.0218 eV   65.18 nm  f=0.0592  <S**2>=0.000
       6 -> 19         0.21351
       6 -> 20        -0.13035
       8 -> 25         0.31750
       8 -> 26        -0.27943
       9 -> 25        -0.27959
       9 -> 26        -0.31734

 Excited State  61:      Singlet-A     19.1200 eV   64.85 nm  f=0.0765  <S**2>=0.000
       8 -> 26         0.45740
       9 -> 25        -0.45712

 Excited State  62:      Singlet-A     19.4215 eV   63.84 nm  f=0.0038  <S**2>=0.000
       7 -> 14         0.11893
       7 -> 19         0.47140
       7 -> 20        -0.33856
       8 -> 26         0.16870
       9 -> 23         0.17202
       9 -> 25         0.16864

 Excited State  63:      Singlet-A     19.4215 eV   63.84 nm  f=0.0038  <S**2>=0.000
       6 -> 14         0.11893
       6 -> 19         0.47141
       6 -> 20        -0.33856
       8 -> 23         0.17202
       8 -> 25        -0.16866
       9 -> 26         0.16865

 Excited State  64:      Singlet-A     20.0571 eV   61.82 nm  f=0.0167  <S**2>=0.000
       4 -> 10        -0.24932
       4 -> 11         0.31236
       4 -> 14        -0.11592
       5 -> 19        -0.22609
       5 -> 20         0.11280
       8 -> 27         0.31283
       8 -> 28         0.12735
       9 -> 27         0.12747
       9 -> 28        -0.31280

 Excited State  65:      Singlet-A     20.0750 eV   61.76 nm  f=0.0000  <S**2>=0.000
       8 -> 27        -0.18444
       8 -> 28         0.45265
       9 -> 27         0.45308
       9 -> 28         0.18445

 Excited State  66:      Singlet-A     20.1157 eV   61.64 nm  f=0.0114  <S**2>=0.000
       4 -> 10         0.58874
       8 -> 27         0.22267
       9 -> 28        -0.22263

 Excited State  67:      Singlet-A     20.1684 eV   61.47 nm  f=0.0794  <S**2>=0.000
       8 -> 27        -0.32026
       8 -> 28         0.36145
       9 -> 27        -0.36109
       9 -> 28        -0.32027

 Excited State  68:      Singlet-A     20.1684 eV   61.47 nm  f=0.0794  <S**2>=0.000
       8 -> 27         0.36126
       8 -> 28         0.32041
       9 -> 27        -0.32012
       9 -> 28         0.36128

 Excited State  69:      Singlet-A     20.4642 eV   60.59 nm  f=0.1473  <S**2>=0.000
       4 -> 10         0.13317
       4 -> 11         0.47003
       4 -> 14        -0.15915
       5 -> 19         0.43249
       5 -> 23        -0.10634

 Excited State  70:      Singlet-A     20.5981 eV   60.19 nm  f=0.0138  <S**2>=0.000
       7 -> 20         0.26005
       9 -> 29         0.61793
       9 -> 30         0.10608

 Excited State  71:      Singlet-A     20.5982 eV   60.19 nm  f=0.0138  <S**2>=0.000
       6 -> 20         0.26003
       8 -> 29         0.61794
       8 -> 30         0.10609

 Excited State  72:      Singlet-A     20.7686 eV   59.70 nm  f=0.0276  <S**2>=0.000
       7 -> 19         0.38856
       7 -> 20         0.48602
       9 -> 29        -0.26809

 Excited State  73:      Singlet-A     20.7687 eV   59.70 nm  f=0.0276  <S**2>=0.000
       6 -> 19         0.38857
       6 -> 20         0.48603
       8 -> 29        -0.26806

 Excited State  74:      Singlet-A     20.8517 eV   59.46 nm  f=0.0077  <S**2>=0.000
       4 -> 10        -0.14159
       4 -> 11        -0.29252
       5 -> 19         0.42223
       5 -> 20         0.27496
       8 -> 27         0.18008
       9 -> 28        -0.18010

 Excited State  75:      Singlet-A     21.1849 eV   58.52 nm  f=0.0567  <S**2>=0.000
       4 -> 10         0.11574
       5 -> 20         0.54817
       8 -> 27        -0.13548
       8 -> 32         0.10435
       9 -> 28         0.13548
       9 -> 31         0.10435

 Excited State  76:      Singlet-A     21.4165 eV   57.89 nm  f=0.0299  <S**2>=0.000
       5 -> 21        -0.10529
       5 -> 22         0.14650
       6 -> 21         0.20252
       7 -> 22        -0.20261
       7 -> 23        -0.29146
       9 -> 30         0.49697

 Excited State  77:      Singlet-A     21.4165 eV   57.89 nm  f=0.0299  <S**2>=0.000
       5 -> 21         0.14648
       5 -> 22         0.10521
       6 -> 22         0.20270
       6 -> 23        -0.29135
       7 -> 21         0.20290
       8 -> 30         0.49687

 Excited State  78:      Singlet-A     21.4791 eV   57.72 nm  f=0.0177  <S**2>=0.000
       6 -> 21        -0.39625
       6 -> 22         0.16098
       6 -> 23         0.11340
       7 -> 21         0.16125
       7 -> 22         0.39635
       7 -> 23        -0.20171
       8 -> 30        -0.13536
       9 -> 30         0.16645

 Excited State  79:      Singlet-A     21.4791 eV   57.72 nm  f=0.0177  <S**2>=0.000
       6 -> 21         0.16051
       6 -> 22         0.39540
       6 -> 23         0.20184
       7 -> 21         0.39704
       7 -> 22        -0.16183
       7 -> 23         0.11334
       8 -> 30        -0.16667
       9 -> 30        -0.13527

 Excited State  80:      Singlet-A     21.4926 eV   57.69 nm  f=0.0047  <S**2>=0.000
       5 -> 23         0.13074
       6 -> 21         0.32002
       6 -> 22         0.34772
       7 -> 21        -0.34585
       7 -> 22         0.31938

 Excited State  81:      Singlet-A     21.5821 eV   57.45 nm  f=0.0000  <S**2>=0.000
       6 -> 21         0.36123
       6 -> 22        -0.33303
       7 -> 21         0.33255
       7 -> 22         0.36073

 Excited State  82:      Singlet-A     21.5871 eV   57.43 nm  f=0.0769  <S**2>=0.000
       5 -> 21         0.61984
       5 -> 22        -0.21064

 Excited State  83:      Singlet-A     21.5871 eV   57.43 nm  f=0.0769  <S**2>=0.000
       5 -> 21         0.21066
       5 -> 22         0.61986

 Excited State  84:      Singlet-A     22.0708 eV   56.18 nm  f=0.0020  <S**2>=0.000
       4 -> 12        -0.11656
       4 -> 13         0.59874
       4 -> 15         0.18082
       7 -> 23         0.12519
       9 -> 30         0.16857

 Excited State  85:      Singlet-A     22.0708 eV   56.18 nm  f=0.0020  <S**2>=0.000

 The electronic state is 1-A.
 Alpha  occ. eigenvalues --  -24.47479 -10.19687  -1.29990  -0.83852  -0.61948
 Alpha  occ. eigenvalues --   -0.61687  -0.61687  -0.47003  -0.47003
 Alpha virt. eigenvalues --    0.09130   0.14579   0.17452   0.17452   0.21160
 Alpha virt. eigenvalues --    0.23174   0.23174   0.24694   0.24695   0.34329
 Alpha virt. eigenvalues --    0.36489   0.38494   0.38494   0.40003   0.42669

 Mulliken charges:
               1
     1  C    0.603934
     2  F   -0.472663
     3  H   -0.043744
     4  H   -0.043761
     5  H   -0.043765
 Sum of Mulliken charges =  -0.00000

 Dipole moment (field-independent basis, Debye):
    X=              1.9121    Y=             -0.0000    Z=              0.0000  Tot=              1.9121
 Quadrupole moment (field-independent basis, Debye-Ang):
   XX=            -12.6798   YY=            -11.8999   ZZ=            -11.9000
   XY=              0.0000   XZ=              0.0000   YZ=              0.0000

 Normal termination of Gaussian 16 at Mon Mar 21 20:09:13 2022.
