 Gaussian 16, Revision C.01,
 Gaussian 16:  EM64L-G16RevC.01  3-Jul-2019

 ----------------------------------------------------------------------
 #P TD(Nstates=10000) lc-whpbe/Gen SCF(maxcycles=100) Int(Grid=ultrafin
 e)
 ----------------------------------------------------------------------

 ---------------------
 xGDB7_00001_tier4.com
 ---------------------
 Symbolic Z-matrix:
 Charge =  0 Multiplicity = 1

                         Standard orientation:
 ---------------------------------------------------------------------
 Center     Atomic      Atomic             Coordinates (Angstroms)
 Number     Number       Type             X           Y           Z
 ---------------------------------------------------------------------
      1          7           0        1.111035   -0.177046   -0.052467
      2          6           0       -0.122009    0.419593    0.001774
      3          7           0       -1.267607   -0.121443    0.008098
      4          1           0        1.920558    0.367802    0.180104
      5          1           0        1.180700   -1.165617    0.115308
      6          1           0       -0.065701    1.508813    0.004046
      7          1           0       -1.207497   -1.139126    0.000481
 ---------------------------------------------------------------------

 SCF Done:  E(RLC-wHPBE) =  -149.812728976     A.U. after   15 cycles

 Excitation energies and oscillator strengths:

 Excited State   1:      Singlet-A      6.3923 eV  193.96 nm  f=0.0071  <S**2>=0.000
      11 -> 14         0.65330
      11 -> 15         0.18195
      12 -> 14        -0.14303
 This state for optimization and/or second-order correction.
 Total Energy, E(TD-HF/TD-DFT) =  -149.577816234
 Copying the excited state density for this state as the 1-particle RhoCI density.

 Excited State   2:      Singlet-A      7.0885 eV  174.91 nm  f=0.0068  <S**2>=0.000
      12 -> 13         0.67289

 Excited State   3:      Singlet-A      7.3802 eV  168.00 nm  f=0.2403  <S**2>=0.000
      11 -> 14         0.14202
      12 -> 14         0.64910
      12 -> 15         0.15090

 Excited State   4:      Singlet-A      8.0083 eV  154.82 nm  f=0.0056  <S**2>=0.000
      12 -> 13        -0.11194
      12 -> 14        -0.12724
      12 -> 15         0.63190
      12 -> 16        -0.20317

 Excited State   5:      Singlet-A      8.0602 eV  153.82 nm  f=0.0738  <S**2>=0.000
      11 -> 13         0.56118
      11 -> 15         0.15581
      11 -> 16        -0.35479

 Excited State   6:      Singlet-A      8.6331 eV  143.61 nm  f=0.0397  <S**2>=0.000
      10 -> 13         0.14038
      12 -> 15         0.18812
      12 -> 16         0.63427
      12 -> 17        -0.11646

 Excited State   7:      Singlet-A      8.7994 eV  140.90 nm  f=0.0837  <S**2>=0.000
      11 -> 13        -0.22209
      11 -> 14        -0.17764
      11 -> 15         0.60404
      11 -> 17         0.15695

 Excited State   8:      Singlet-A      9.6638 eV  128.30 nm  f=0.0279  <S**2>=0.000
      11 -> 13         0.30752
      11 -> 15         0.18112
      11 -> 16         0.51444
      11 -> 17        -0.16993
      11 -> 20        -0.10851
      12 -> 17        -0.13212

 Excited State   9:      Singlet-A      9.7399 eV  127.30 nm  f=0.0122  <S**2>=0.000
      10 -> 15        -0.14842
      11 -> 16         0.12035
      12 -> 17         0.60981
      12 -> 18        -0.13778

 Excited State  10:      Singlet-A      9.9671 eV  124.39 nm  f=0.0039  <S**2>=0.000
      12 -> 17         0.13842
      12 -> 18         0.65625

 Excited State  11:      Singlet-A     10.3495 eV  119.80 nm  f=0.0004  <S**2>=0.000
       9 -> 14         0.65807
       9 -> 15         0.18333

 Excited State  12:      Singlet-A     10.8740 eV  114.02 nm  f=0.0534  <S**2>=0.000
      10 -> 14         0.45857
      10 -> 15         0.13195
      11 -> 17        -0.22174
      12 -> 19        -0.40695

 Excited State  13:      Singlet-A     10.9030 eV  113.72 nm  f=0.0175  <S**2>=0.000
      10 -> 14        -0.20534
      10 -> 16         0.10387
      11 -> 17         0.10895
      12 -> 19        -0.35175
      12 -> 20         0.52228

 Excited State  14:      Singlet-A     10.9734 eV  112.99 nm  f=0.0186  <S**2>=0.000
      11 -> 17        -0.31925
      11 -> 18         0.45319
      11 -> 20        -0.17594
      11 -> 23        -0.13151
      12 -> 19         0.18352
      12 -> 20         0.18954
      12 -> 21        -0.13916

 Excited State  15:      Singlet-A     11.1030 eV  111.67 nm  f=0.0196  <S**2>=0.000
      10 -> 13         0.13574
      11 -> 16         0.13376
      11 -> 17         0.33536
      11 -> 18         0.39593
      11 -> 20        -0.11232
      11 -> 22         0.16275
      12 -> 19        -0.24019
      12 -> 20        -0.24106

 Excited State  16:      Singlet-A     11.1892 eV  110.81 nm  f=0.0691  <S**2>=0.000
      10 -> 13         0.35275
      10 -> 14        -0.30779
      11 -> 16        -0.13339
      11 -> 17        -0.29105
      11 -> 18        -0.13474
      12 -> 19        -0.26061
      12 -> 20        -0.16213
      12 -> 21        -0.12682

 Excited State  17:      Singlet-A     11.2747 eV  109.97 nm  f=0.0488  <S**2>=0.000
      10 -> 13         0.53378
      10 -> 14         0.24859
      10 -> 15         0.13442
      12 -> 16        -0.12558
      12 -> 19         0.11980
      12 -> 20         0.20076

 Excited State  18:      Singlet-A     11.5597 eV  107.26 nm  f=0.1610  <S**2>=0.000
      10 -> 15        -0.12690
      11 -> 20        -0.19621
      12 -> 21         0.60869

 Excited State  19:      Singlet-A     11.6545 eV  106.38 nm  f=0.0171  <S**2>=0.000
      11 -> 19         0.52768
      11 -> 20         0.12416
      11 -> 21         0.34043
      11 -> 24        -0.21873

 Excited State  20:      Singlet-A     11.9301 eV  103.93 nm  f=0.0366  <S**2>=0.000
       9 -> 13         0.42183
      11 -> 18         0.12599
      11 -> 19        -0.12012
      11 -> 20         0.44484
      11 -> 23        -0.10889

 Excited State  21:      Singlet-A     11.9999 eV  103.32 nm  f=0.0245  <S**2>=0.000
       9 -> 13         0.41049
      10 -> 15         0.27933
      11 -> 19         0.14453
      11 -> 20        -0.23465
      11 -> 22        -0.12182
      12 -> 22        -0.28891

 Excited State  22:      Singlet-A     12.0191 eV  103.16 nm  f=0.0095  <S**2>=0.000
       9 -> 13         0.23267
      10 -> 14         0.13501
      10 -> 15        -0.23793
      11 -> 19         0.10246
      11 -> 20        -0.19758
      12 -> 21        -0.16313
      12 -> 22         0.45758

 Excited State  23:      Singlet-A     12.1519 eV  102.03 nm  f=0.0311  <S**2>=0.000
      10 -> 14        -0.13544
      10 -> 15         0.41323
      10 -> 18        -0.10578
      12 -> 17         0.18443
      12 -> 22         0.35047
      12 -> 23        -0.28266

 Excited State  24:      Singlet-A     12.2273 eV  101.40 nm  f=0.0450  <S**2>=0.000
       9 -> 13         0.11070
      11 -> 19        -0.23176
      11 -> 20        -0.20801
      11 -> 21         0.48409
      11 -> 22         0.28657
      11 -> 26        -0.15088

 Excited State  25:      Singlet-A     12.4312 eV   99.74 nm  f=0.0758  <S**2>=0.000
      10 -> 15         0.25331
      10 -> 17        -0.11955
      10 -> 18         0.12190
      12 -> 22         0.13871
      12 -> 23         0.57355

 Excited State  26:      Singlet-A     12.4899 eV   99.27 nm  f=0.0554  <S**2>=0.000
      11 -> 18        -0.15123
      11 -> 19         0.16398
      11 -> 21        -0.24879
      11 -> 22         0.53288
      11 -> 23        -0.12369
      11 -> 26         0.10484

 Excited State  27:      Singlet-A     12.7068 eV   97.57 nm  f=0.2236  <S**2>=0.000
       9 -> 14        -0.15982
       9 -> 15         0.61521
       9 -> 16        -0.10786
      12 -> 24         0.13946

 Excited State  28:      Singlet-A     12.7984 eV   96.87 nm  f=0.0333  <S**2>=0.000
      10 -> 16         0.60833
      10 -> 22         0.10051
      12 -> 20        -0.10723
      12 -> 25        -0.16109

 Excited State  29:      Singlet-A     12.9980 eV   95.39 nm  f=0.0793  <S**2>=0.000
      10 -> 19        -0.10357
      11 -> 17        -0.11548
      11 -> 18         0.13789
      11 -> 20         0.11028
      11 -> 22         0.17846
      11 -> 23         0.46792
      11 -> 25        -0.14396
      12 -> 24        -0.34999

 Excited State  30:      Singlet-A     13.2283 eV   93.73 nm  f=0.0539  <S**2>=0.000
       8 -> 13        -0.13776
       8 -> 14         0.29112
       9 -> 15         0.13445
       9 -> 16         0.42213
      11 -> 23        -0.24914
      12 -> 24        -0.25806

 Excited State  31:      Singlet-A     13.2448 eV   93.61 nm  f=0.0100  <S**2>=0.000
       7 -> 14         0.16202
       8 -> 14         0.55584
       8 -> 15         0.17776
       9 -> 16        -0.18518
      11 -> 23         0.14104
      12 -> 24         0.15681

 Excited State  32:      Singlet-A     13.4675 eV   92.06 nm  f=0.0933  <S**2>=0.000
       8 -> 13        -0.15269
       9 -> 16         0.40767
       9 -> 18        -0.10524
      11 -> 23         0.23870
      12 -> 24         0.42230

 Excited State  33:      Singlet-A     13.5750 eV   91.33 nm  f=0.0380  <S**2>=0.000
      10 -> 16         0.21247
      10 -> 18         0.24708
      12 -> 25         0.49929
      12 -> 26         0.20901
      12 -> 27        -0.19218

 Excited State  34:      Singlet-A     13.8933 eV   89.24 nm  f=0.1151  <S**2>=0.000
      10 -> 17        -0.35930
      10 -> 18         0.15615
      10 -> 21         0.18008
      12 -> 25        -0.25161
      12 -> 26         0.40897

 Excited State  35:      Singlet-A     13.8948 eV   89.23 nm  f=0.0074  <S**2>=0.000
      10 -> 17         0.11954
      11 -> 19         0.21640
      11 -> 24         0.58199
      11 -> 32         0.14814
      12 -> 27        -0.14578

 Excited State  36:      Singlet-A     14.0129 eV   88.48 nm  f=0.0235  <S**2>=0.000
      10 -> 17         0.45409
      10 -> 18         0.25621
      11 -> 24        -0.17866
      12 -> 25        -0.27793
      12 -> 26         0.13371
      12 -> 27        -0.16437

 Excited State  37:      Singlet-A     14.1013 eV   87.92 nm  f=0.0449  <S**2>=0.000
      10 -> 17         0.19323
      10 -> 18        -0.36414
      10 -> 21         0.10088
      12 -> 23         0.12722
      12 -> 26         0.42605
      12 -> 27         0.21367

 Excited State  38:      Singlet-A     14.3957 eV   86.13 nm  f=0.1146  <S**2>=0.000
       7 -> 14         0.13067
      10 -> 17         0.12929
      10 -> 18         0.28533
      10 -> 19         0.13894
      10 -> 20        -0.30878
      11 -> 24         0.11676
      12 -> 27         0.41347

 Excited State  39:      Singlet-A     14.5079 eV   85.46 nm  f=0.0829  <S**2>=0.000
       7 -> 14         0.13541
       8 -> 13         0.16215
       8 -> 15         0.16912
       9 -> 16         0.13147
       9 -> 17         0.38790
       9 -> 18        -0.30385
      11 -> 25         0.28558

 Excited State  40:      Singlet-A     14.6148 eV   84.83 nm  f=0.0093  <S**2>=0.000
       7 -> 14         0.43897
       7 -> 15         0.11880
       8 -> 14        -0.12368
       9 -> 17        -0.15391
       9 -> 18         0.23331
      11 -> 21        -0.11138
      11 -> 25         0.26891
      11 -> 26        -0.20998

 Excited State  41:      Singlet-A     14.6951 eV   84.37 nm  f=0.0309  <S**2>=0.000
       7 -> 14        -0.14729
       8 -> 13         0.13090
       8 -> 16        -0.12223
       9 -> 16         0.10005
       9 -> 17         0.21802
       9 -> 18         0.48437
      10 -> 19        -0.19733
      11 -> 26         0.12843
      12 -> 24         0.15725

 Excited State  42:      Singlet-A     14.7203 eV   84.23 nm  f=0.0086  <S**2>=0.000
       7 -> 14        -0.30753
       8 -> 14         0.10689
       9 -> 17        -0.26070
      11 -> 23         0.13715
      11 -> 25         0.47379
      11 -> 26         0.12201

 Excited State  43:      Singlet-A     14.8608 eV   83.43 nm  f=0.1339  <S**2>=0.000
       7 -> 13        -0.12558
       7 -> 14         0.14060
       8 -> 13         0.39972
       9 -> 16         0.10742
       9 -> 17        -0.26802
       9 -> 20        -0.12076
      11 -> 21         0.11085
      11 -> 25        -0.19260
      11 -> 26         0.30285

 Excited State  44:      Singlet-A     14.9187 eV   83.11 nm  f=0.0670  <S**2>=0.000
       7 -> 14         0.19069
       8 -> 13        -0.30531
      11 -> 21         0.11224
      11 -> 26         0.49847

 Excited State  45:      Singlet-A     15.0271 eV   82.51 nm  f=0.0285  <S**2>=0.000
       7 -> 13        -0.33099
       9 -> 16         0.12183
       9 -> 18         0.14372
      10 -> 19         0.49024
      12 -> 24        -0.10934

 Excited State  46:      Singlet-A     15.0942 eV   82.14 nm  f=0.0199  <S**2>=0.000
       7 -> 13        -0.23923
      10 -> 18         0.17546
      10 -> 20         0.48335
      12 -> 27         0.20121
      12 -> 28        -0.13623
      12 -> 34         0.15544

 Excited State  47:      Singlet-A     15.1437 eV   81.87 nm  f=0.0335  <S**2>=0.000
       7 -> 13         0.38382
       7 -> 15         0.11267
       8 -> 13         0.23631
       8 -> 16        -0.14067
       9 -> 19        -0.21443
       9 -> 20         0.21412
      10 -> 19         0.22740
      10 -> 20         0.21544

 Excited State  48:      Singlet-A     15.3712 eV   80.66 nm  f=0.0834  <S**2>=0.000
       9 -> 19         0.55107
       9 -> 20         0.28796
       9 -> 24        -0.10918

 Excited State  49:      Singlet-A     15.4471 eV   80.26 nm  f=0.0951  <S**2>=0.000
       7 -> 13        -0.11140
       8 -> 13         0.12460
       8 -> 15        -0.10604
       9 -> 19        -0.15011
      10 -> 19        -0.10105
      10 -> 21         0.17668
      11 -> 27         0.48081
      11 -> 34         0.11734
      12 -> 29        -0.10045
      12 -> 32         0.17058

 Excited State  50:      Singlet-A     15.5766 eV   79.60 nm  f=0.0241  <S**2>=0.000
       7 -> 13        -0.11917
       9 -> 19        -0.13652
       9 -> 20         0.19197
      10 -> 21        -0.30647
      10 -> 23        -0.16900
      12 -> 27         0.11768
      12 -> 28         0.32360
      12 -> 29         0.23745
      12 -> 31         0.20001

 Excited State  51:      Singlet-A     15.5817 eV   79.57 nm  f=0.0183  <S**2>=0.000
       7 -> 13         0.14798
       9 -> 20        -0.30269
      10 -> 21         0.27964
      12 -> 26        -0.12439
      12 -> 27         0.10870
      12 -> 28         0.40717
      12 -> 30        -0.13285
      12 -> 31         0.11897

 Excited State  52:      Singlet-A     15.6668 eV   79.14 nm  f=0.0489  <S**2>=0.000
       7 -> 13        -0.16056
       8 -> 15         0.12984
       8 -> 16        -0.15626
       9 -> 17        -0.16297
       9 -> 19        -0.13221
       9 -> 20         0.33180
      10 -> 19        -0.16300
      10 -> 21         0.27841
      11 -> 27        -0.16241
      12 -> 29        -0.20915

 Excited State  53:      Singlet-A     15.7294 eV   78.82 nm  f=0.0139  <S**2>=0.000
       7 -> 15         0.12859
       8 -> 14        -0.16244
       8 -> 15         0.51067
       9 -> 17        -0.13940
       9 -> 21         0.14580
      10 -> 21        -0.10723
      11 -> 27         0.15888
      12 -> 32         0.12319

 Excited State  54:      Singlet-A     15.8540 eV   78.20 nm  f=0.0143  <S**2>=0.000
       8 -> 15         0.12053
      10 -> 21         0.29667
      10 -> 22        -0.17796
      12 -> 28        -0.16091
      12 -> 29         0.50005
      12 -> 34         0.10932

 Excited State  55:      Singlet-A     15.8901 eV   78.03 nm  f=0.0007  <S**2>=0.000
      10 -> 22         0.28947
      12 -> 28         0.18393
      12 -> 30         0.54628

 Excited State  56:      Singlet-A     16.0229 eV   77.38 nm  f=0.0395  <S**2>=0.000
       7 -> 15        -0.20106
       8 -> 15        -0.14451
       8 -> 16        -0.14310
       9 -> 21         0.56873

 Excited State  57:      Singlet-A     16.1462 eV   76.79 nm  f=0.1667  <S**2>=0.000
       7 -> 15        -0.14275
       8 -> 16        -0.18275
       9 -> 21        -0.21626
       9 -> 22         0.17796
      10 -> 22         0.19021
      10 -> 23        -0.10313
      10 -> 24        -0.15177
      12 -> 27         0.13400
      12 -> 30        -0.13969
      12 -> 32         0.37587

 Excited State  58:      Singlet-A     16.2508 eV   76.29 nm  f=0.0730  <S**2>=0.000
       7 -> 15        -0.11400
       8 -> 16        -0.13393
       9 -> 21        -0.11167
       9 -> 22         0.15670
      11 -> 27         0.15225
      11 -> 28         0.37458
      11 -> 29         0.34561
      11 -> 31         0.23455

 Excited State  59:      Singlet-A     16.2621 eV   76.24 nm  f=0.0201  <S**2>=0.000
       7 -> 15        -0.19005
       8 -> 16        -0.10405
      11 -> 28         0.11348
      11 -> 29        -0.20399
      11 -> 31        -0.18606
      12 -> 28        -0.13262
      12 -> 29        -0.11757
      12 -> 31         0.43721
      12 -> 32        -0.14429

 Excited State  60:      Singlet-A     16.3077 eV   76.03 nm  f=0.0443  <S**2>=0.000
       7 -> 15         0.19263
      11 -> 28        -0.15388
      11 -> 29         0.21272
      11 -> 31         0.27139
      12 -> 28        -0.17988
      12 -> 31         0.42087

 Excited State  61:      Singlet-A     16.4303 eV   75.46 nm  f=0.0165  <S**2>=0.000
       7 -> 15         0.16628
       8 -> 16         0.14199
      10 -> 22         0.28578
      11 -> 28         0.36547
      11 -> 30        -0.11465
      11 -> 32         0.12452
      12 -> 27         0.11172
      12 -> 29         0.14238
      12 -> 30        -0.16347
      12 -> 32        -0.11119
      12 -> 34        -0.16490

 Excited State  62:      Singlet-A     16.4924 eV   75.18 nm  f=0.0679  <S**2>=0.000
       7 -> 14        -0.10792
       7 -> 15         0.43913
       8 -> 15        -0.10365
       8 -> 16        -0.25682
       9 -> 22         0.13546
       9 -> 23        -0.10619
      10 -> 22        -0.13649
      11 -> 28         0.11750
      11 -> 29        -0.10271
      11 -> 31        -0.13302

 Excited State  63:      Singlet-A     16.5049 eV   75.12 nm  f=0.0711  <S**2>=0.000
       8 -> 16        -0.21714
       9 -> 21        -0.10054
      11 -> 24        -0.14114
      11 -> 28        -0.20233
      11 -> 30        -0.17269
      11 -> 31         0.11230
      11 -> 32         0.46687
      11 -> 34         0.12941

 Excited State  64:      Singlet-A     16.6122 eV   74.63 nm  f=0.0189  <S**2>=0.000
       6 -> 13         0.11815
       7 -> 16         0.14095
       8 -> 16         0.32462
       9 -> 22         0.30791
      10 -> 22        -0.13902
      10 -> 24        -0.11585
      11 -> 32         0.27722
      12 -> 32         0.19101

 Excited State  65:      Singlet-A     16.6811 eV   74.33 nm  f=0.0128  <S**2>=0.000
       8 -> 18        -0.14751
       9 -> 20        -0.10328
       9 -> 22        -0.23902
       9 -> 23         0.20640
      10 -> 22        -0.10711
      10 -> 23        -0.22870
      11 -> 28         0.20680
      11 -> 30         0.27877
      11 -> 32         0.18764
      12 -> 29        -0.12502
      12 -> 32         0.17211
      12 -> 34         0.10540

 Excited State  66:      Singlet-A     16.6978 eV   74.25 nm  f=0.0133  <S**2>=0.000
       6 -> 14        -0.13942
       9 -> 22        -0.13289
      10 -> 23         0.50707
      10 -> 27         0.14889
      11 -> 30         0.12844
      12 -> 28         0.10298
      12 -> 29         0.12992
      12 -> 31         0.11393
      12 -> 32         0.14677

 Excited State  67:      Singlet-A     16.8106 eV   73.75 nm  f=0.0077  <S**2>=0.000
       8 -> 17         0.12679
       9 -> 22         0.29860
       9 -> 23         0.13209
      10 -> 22         0.13490
      11 -> 30         0.43015
      11 -> 32         0.10786
      12 -> 32        -0.21832
      12 -> 35        -0.11212

 Excited State  68:      Singlet-A     16.9567 eV   73.12 nm  f=0.0047  <S**2>=0.000
       7 -> 16         0.30228
       7 -> 18         0.17396
       8 -> 17         0.17728
       8 -> 18        -0.16799
       9 -> 23         0.36393
      11 -> 30        -0.22291
      11 -> 32        -0.12031

 Excited State  69:      Singlet-A     17.0049 eV   72.91 nm  f=0.0104  <S**2>=0.000
       6 -> 14        -0.25756
      10 -> 23        -0.11317
      10 -> 25        -0.23517
      10 -> 26        -0.10967
      10 -> 27         0.10746
      12 -> 33         0.49944

 Excited State  70:      Singlet-A     17.1419 eV   72.33 nm  f=0.0530  <S**2>=0.000
       6 -> 14        -0.13016
       7 -> 16        -0.28872
       8 -> 18        -0.14395
       9 -> 23         0.12868
      10 -> 22         0.17265
      10 -> 24        -0.17429
      11 -> 29        -0.10848
      12 -> 33        -0.11464
      12 -> 34         0.37980
      12 -> 36         0.14489

 Excited State  71:      Singlet-A     17.1573 eV   72.26 nm  f=0.0450  <S**2>=0.000
       6 -> 14        -0.10669
       7 -> 16         0.30417
       8 -> 19         0.10511
       9 -> 22        -0.10373
       9 -> 23        -0.26365
       9 -> 24        -0.13526
      10 -> 22         0.13133
      11 -> 29         0.15809
      11 -> 31        -0.12140
      11 -> 34        -0.10585
      12 -> 34         0.28365
      12 -> 36         0.13060

 Excited State  72:      Singlet-A     17.2548 eV   71.86 nm  f=0.0876  <S**2>=0.000
       6 -> 14         0.39565
       6 -> 15         0.13130
       7 -> 19         0.11555
       8 -> 19        -0.11579
       9 -> 24         0.27665
      10 -> 23         0.12921

 The electronic state is 1-A.
 Alpha  occ. eigenvalues --  -14.24157 -14.17784 -10.19237  -1.08526  -0.98324
 Alpha  occ. eigenvalues --   -0.75614  -0.67275  -0.64140  -0.53443  -0.51244
 Alpha  occ. eigenvalues --   -0.38370  -0.36506
 Alpha virt. eigenvalues --    0.09126   0.11519   0.12440   0.14260   0.19409
 Alpha virt. eigenvalues --    0.21142   0.23587   0.24146   0.26223   0.28164
 Alpha virt. eigenvalues --    0.29281   0.31496   0.34057   0.34848   0.37988

 Mulliken charges:
               1
     1  N    0.056187
     2  C    0.585734
     3  N   -0.193868
     4  H   -0.067714
     5  H   -0.097644
     6  H   -0.264731
     7  H   -0.017963
 Sum of Mulliken charges =  -0.00000

 Dipole moment (field-independent basis, Debye):
    X=              3.4991    Y=             -0.7570    Z=              0.5818  Tot=              3.6270
 Quadrupole moment (field-independent basis, Debye-Ang):
   XX=            -20.6731   YY=            -14.5381   ZZ=            -20.5901
   XY=              1.3575   XZ=              1.1820   YZ=             -0.1618

 Normal termination of Gaussian 16 at Mon Mar 21 20:10:38 2022.
