 Gaussian 16, Revision C.01,
 Gaussian 16:  EM64L-G16RevC.01  3-Jul-2019

 ----------------------------------------------------------------------
 #P TD(Nstates=10000) lc-whpbe/Gen SCF(maxcycles=100) Int(Grid=ultrafin
 e)
 ----------------------------------------------------------------------

 ---------------------
 xGDB7_00001_tier4.com
 ---------------------
 Symbolic Z-matrix:
 Charge =  0 Multiplicity = 1

                         Standard orientation:
 ---------------------------------------------------------------------
 Center     Atomic      Atomic             Coordinates (Angstroms)
 Number     Number       Type             X           Y           Z
 ---------------------------------------------------------------------
      1          9           0        0.000000    1.098813   -0.289120
      2          6           0       -0.000000   -0.000000    0.499944
      3          9           0       -0.000000   -1.098813   -0.289120
      4          1           0       -0.911346    0.000000    1.102246
      5          1           0        0.911346   -0.000000    1.102246
 ---------------------------------------------------------------------

 SCF Done:  E(RLC-wHPBE) =  -238.694215198     A.U. after   11 cycles

 Excitation energies and oscillator strengths:

 Excited State   1:      Singlet-B1     9.8183 eV  126.28 nm  f=0.0269  <S**2>=0.000
      13 -> 14         0.67427
      13 -> 18        -0.14247
 This state for optimization and/or second-order correction.
 Total Energy, E(TD-HF/TD-DFT) =  -238.333400641
 Copying the excited state density for this state as the 1-particle RhoCI density.

 Excited State   2:      Singlet-A2    10.3834 eV  119.41 nm  f=0.0000  <S**2>=0.000
      10 -> 14        -0.10694
      13 -> 15         0.63077
      13 -> 19        -0.23168
      13 -> 23        -0.15654

 Excited State   3:      Singlet-B1    11.0974 eV  111.72 nm  f=0.0201  <S**2>=0.000
      13 -> 14        -0.11960
      13 -> 17         0.61258
      13 -> 18        -0.28056
      13 -> 25        -0.12138

 Excited State   4:      Singlet-A1    11.5056 eV  107.76 nm  f=0.0741  <S**2>=0.000
      11 -> 14         0.13087
      13 -> 16         0.67356

 Excited State   5:      Singlet-B2    11.6422 eV  106.50 nm  f=0.0272  <S**2>=0.000
      11 -> 15        -0.24343
      12 -> 14         0.61144
      12 -> 17         0.18986
      12 -> 18        -0.11439

 Excited State   6:      Singlet-A1    11.9141 eV  104.06 nm  f=0.0323  <S**2>=0.000
      11 -> 14         0.55345
      11 -> 17         0.12275
      12 -> 15        -0.35261
      13 -> 16        -0.16498

 Excited State   7:      Singlet-A2    12.2576 eV  101.15 nm  f=0.0000  <S**2>=0.000
      10 -> 14         0.59995
      10 -> 17         0.21007
      10 -> 18        -0.12770
      13 -> 19        -0.20390
      13 -> 23        -0.12541

 Excited State   8:      Singlet-A1    12.6055 eV   98.36 nm  f=0.0095  <S**2>=0.000
      11 -> 14         0.35395
      11 -> 18        -0.10486
      12 -> 15         0.52040
      12 -> 19        -0.16228
      12 -> 23        -0.17935
      13 -> 22         0.11992

 Excited State   9:      Singlet-B1    12.6635 eV   97.91 nm  f=0.1555  <S**2>=0.000
      10 -> 15        -0.33912
      13 -> 17         0.23594
      13 -> 18         0.53878

 Excited State  10:      Singlet-B2    12.8845 eV   96.23 nm  f=0.0615  <S**2>=0.000
      11 -> 15         0.45558
      11 -> 23        -0.14828
      12 -> 14         0.31431
      12 -> 17        -0.36588

 Excited State  11:      Singlet-B1    12.9662 eV   95.62 nm  f=0.0006  <S**2>=0.000
      10 -> 15         0.50085
      10 -> 19        -0.18910
      13 -> 17         0.19942
      13 -> 18         0.24714
      13 -> 21        -0.26998

 Excited State  12:      Singlet-A1    13.1971 eV   93.95 nm  f=0.1337  <S**2>=0.000
      11 -> 14        -0.14609
      11 -> 17         0.62351
      11 -> 18        -0.20430
      11 -> 25        -0.12915
      12 -> 19        -0.10819

 Excited State  13:      Singlet-A2    13.2890 eV   93.30 nm  f=0.0000  <S**2>=0.000
      11 -> 20        -0.12275
      12 -> 16         0.67946

 Excited State  14:      Singlet-B2    13.3226 eV   93.06 nm  f=0.0652  <S**2>=0.000
      10 -> 16        -0.32530
      11 -> 15        -0.23066
      12 -> 17        -0.33799
      13 -> 20         0.42629

 Excited State  15:      Singlet-A2    13.3842 eV   92.63 nm  f=0.0000  <S**2>=0.000
      10 -> 14         0.27814
      10 -> 17        -0.40790
      13 -> 15         0.16717
      13 -> 19         0.44424

 Excited State  16:      Singlet-B1    13.4567 eV   92.14 nm  f=0.0440  <S**2>=0.000
      11 -> 16         0.67690
      12 -> 20        -0.14530

 Excited State  17:      Singlet-A2    13.5813 eV   91.29 nm  f=0.0000  <S**2>=0.000
      10 -> 17         0.36832
      10 -> 18        -0.23532
      10 -> 21        -0.11200
      10 -> 25        -0.14956
      13 -> 15         0.22317
      13 -> 19         0.25963
      13 -> 23         0.36671
      13 -> 29         0.10292

 Excited State  18:      Singlet-B2    13.6300 eV   90.96 nm  f=0.0282  <S**2>=0.000
      10 -> 16        -0.35325
      11 -> 15         0.31859
      11 -> 19        -0.10104
      12 -> 17         0.40364
      13 -> 20         0.27421

 Excited State  19:      Singlet-B1    13.9572 eV   88.83 nm  f=0.0021  <S**2>=0.000
      10 -> 15         0.19385
      10 -> 19        -0.18594
      10 -> 23        -0.16521
      13 -> 21         0.60344
      13 -> 25        -0.11113

 Excited State  20:      Singlet-A1    14.0918 eV   87.98 nm  f=0.0619  <S**2>=0.000
      11 -> 18         0.17290
      12 -> 23         0.10693
      13 -> 22         0.64471

 Excited State  21:      Singlet-B2    14.1649 eV   87.53 nm  f=0.0008  <S**2>=0.000
      11 -> 19        -0.17184
      12 -> 17         0.12875
      12 -> 18         0.61293
      12 -> 21        -0.10042
      12 -> 24         0.10179
      12 -> 25         0.16003

 Excited State  22:      Singlet-A1    14.4090 eV   86.05 nm  f=0.0016  <S**2>=0.000
      11 -> 17         0.14437
      11 -> 18         0.48981
      11 -> 25         0.11130
      12 -> 19        -0.39301
      12 -> 23        -0.12590
      13 -> 22        -0.11559

 Excited State  23:      Singlet-B2    14.4168 eV   86.00 nm  f=0.0523  <S**2>=0.000
      10 -> 16         0.49513
      13 -> 20         0.46197

 Excited State  24:      Singlet-A2    14.4675 eV   85.70 nm  f=0.0000  <S**2>=0.000
      10 -> 14         0.17251
      10 -> 17        -0.14585
      10 -> 18         0.34923
      10 -> 21        -0.12670
      10 -> 25         0.12878
      13 -> 19        -0.19795
      13 -> 23         0.47909

 Excited State  25:      Singlet-B1    14.9232 eV   83.08 nm  f=0.0107  <S**2>=0.000
       7 -> 14        -0.13819
      10 -> 23        -0.18013
      13 -> 18        -0.16222
      13 -> 21         0.10000
      13 -> 24         0.34701
      13 -> 25         0.47684
      13 -> 28        -0.11886

 Excited State  26:      Singlet-B2    14.9742 eV   82.80 nm  f=0.1610  <S**2>=0.000
       8 -> 15         0.14150
      11 -> 19        -0.33496
      11 -> 23        -0.19599
      12 -> 21         0.55112

 Excited State  27:      Singlet-A2    15.0047 eV   82.63 nm  f=0.0000  <S**2>=0.000
      10 -> 17         0.30690
      10 -> 18         0.44312
      10 -> 21        -0.20315
      10 -> 24         0.14396
      13 -> 19         0.25848
      13 -> 23        -0.19547
      13 -> 29        -0.12222

 Excited State  28:      Singlet-A1    15.1137 eV   82.03 nm  f=0.0246  <S**2>=0.000
       8 -> 14         0.11177
      11 -> 17         0.19179
      11 -> 18         0.32111
      11 -> 21        -0.21496
      11 -> 24         0.10179
      12 -> 15         0.19332
      12 -> 19         0.39228
      12 -> 23         0.19737
      13 -> 22        -0.13426

 Excited State  29:      Singlet-B1    15.2047 eV   81.54 nm  f=0.0381  <S**2>=0.000
       8 -> 16         0.16289
      11 -> 22        -0.42843
      12 -> 20         0.51484

 Excited State  30:      Singlet-A2    15.2564 eV   81.27 nm  f=0.0000  <S**2>=0.000
      11 -> 20        -0.30841
      12 -> 22         0.60398
      12 -> 30         0.11082

 Excited State  31:      Singlet-B2    15.4387 eV   80.31 nm  f=0.0530  <S**2>=0.000
       8 -> 15         0.16418
       9 -> 14         0.46659
       9 -> 17         0.19873
       9 -> 18        -0.11840
      11 -> 19         0.24948
      11 -> 23         0.10104
      12 -> 18         0.16183
      12 -> 21         0.21871

 Excited State  32:      Singlet-B1    15.5174 eV   79.90 nm  f=0.0000  <S**2>=0.000
       7 -> 14         0.21989
       7 -> 17         0.14458
      10 -> 15         0.17936
      10 -> 19         0.48270
      13 -> 21         0.11943
      13 -> 24         0.33199

 Excited State  33:      Singlet-A1    15.7335 eV   78.80 nm  f=0.0011  <S**2>=0.000
       8 -> 14         0.27215
       9 -> 15         0.21900
      11 -> 21         0.55303

 Excited State  34:      Singlet-A2    15.7743 eV   78.60 nm  f=0.0000  <S**2>=0.000
       7 -> 15         0.32736
      10 -> 18         0.18240
      10 -> 21         0.46707
      11 -> 20         0.17803
      12 -> 22         0.16010
      13 -> 19         0.13000
      13 -> 29         0.14809

 Excited State  35:      Singlet-A1    15.8874 eV   78.04 nm  f=0.0875  <S**2>=0.000
       8 -> 14         0.39034
       8 -> 17        -0.12029
      10 -> 20        -0.22440
      12 -> 19        -0.29221
      12 -> 23         0.36260

 Excited State  36:      Singlet-B1    15.8981 eV   77.99 nm  f=0.2353  <S**2>=0.000
       7 -> 14         0.53883
       7 -> 18        -0.13705
      10 -> 19        -0.18586
      10 -> 23         0.14666
      11 -> 22         0.20740
      12 -> 20         0.14459
      13 -> 24        -0.10603
      13 -> 25         0.17105

 Excited State  37:      Singlet-B2    15.9476 eV   77.74 nm  f=0.0199  <S**2>=0.000
       8 -> 15        -0.10360
       9 -> 14         0.41078
       9 -> 18        -0.14703
      10 -> 22         0.18834
      11 -> 15        -0.17985
      11 -> 19        -0.37133
      12 -> 18        -0.11612
      12 -> 21        -0.18475

 Excited State  38:      Singlet-B1    15.9888 eV   77.54 nm  f=0.0036  <S**2>=0.000
       7 -> 14        -0.20594
      11 -> 16         0.12429
      11 -> 22         0.47381
      12 -> 20         0.38915
      13 -> 25        -0.15829

 Excited State  39:      Singlet-A2    15.9999 eV   77.49 nm  f=0.0000  <S**2>=0.000
       9 -> 16         0.16293
      10 -> 21        -0.19783
      11 -> 20         0.55491
      12 -> 22         0.26825

 Excited State  40:      Singlet-A1    16.1988 eV   76.54 nm  f=0.0001  <S**2>=0.000
       7 -> 16         0.11554
       8 -> 14         0.40106
       8 -> 17         0.14700
       8 -> 18        -0.17608
       9 -> 15        -0.20750
      10 -> 20         0.31496
      11 -> 21        -0.14044
      11 -> 25         0.10378
      12 -> 23        -0.19112
      13 -> 27         0.11741

 Excited State  41:      Singlet-B2    16.2354 eV   76.37 nm  f=0.0643  <S**2>=0.000
       9 -> 17         0.25077
      10 -> 22         0.40323
      11 -> 19         0.23033
      11 -> 23        -0.39187

 Excited State  42:      Singlet-B2    16.2504 eV   76.30 nm  f=0.0021  <S**2>=0.000
       8 -> 15         0.15945
       9 -> 14        -0.12662
      10 -> 22         0.40440
      11 -> 23         0.36361
      12 -> 18         0.11414
      12 -> 24        -0.14199
      12 -> 25        -0.16866
      13 -> 26         0.19070

 Excited State  43:      Singlet-A1    16.3817 eV   75.68 nm  f=0.0016  <S**2>=0.000
       8 -> 14        -0.10961
       9 -> 15         0.20413
       9 -> 19        -0.13232
      10 -> 20         0.49260
      12 -> 19        -0.10819
      12 -> 23         0.32037
      13 -> 27         0.10995

 Excited State  44:      Singlet-B1    16.5542 eV   74.90 nm  f=0.0191  <S**2>=0.000
       7 -> 14        -0.20360
      10 -> 15         0.16626
      10 -> 19         0.17271
      10 -> 23         0.32993
      13 -> 21         0.11483
      13 -> 24        -0.32555
      13 -> 25         0.36254

 Excited State  45:      Singlet-A2    16.5585 eV   74.88 nm  f=0.0000  <S**2>=0.000
       7 -> 15         0.49280
       7 -> 19        -0.26379
       7 -> 23        -0.19809
      10 -> 18        -0.11115
      10 -> 21        -0.30694

 Excited State  46:      Singlet-B2    16.5972 eV   74.70 nm  f=0.0651  <S**2>=0.000
       8 -> 15         0.54300
       8 -> 19        -0.22312
       8 -> 23        -0.16198
      12 -> 18        -0.13003
      12 -> 21        -0.18159
      12 -> 24         0.14231
      12 -> 25         0.10657

 Excited State  47:      Singlet-A1    16.6888 eV   74.29 nm  f=0.1310  <S**2>=0.000
       6 -> 14        -0.10528
       7 -> 16        -0.11231
       8 -> 14         0.12240
       8 -> 17         0.13179
       9 -> 15         0.50351
      11 -> 18        -0.15368
      11 -> 21        -0.16544
      11 -> 24         0.11965
      11 -> 25         0.17958
      12 -> 15        -0.11984
      12 -> 23        -0.15163

 Excited State  48:      Singlet-B1    16.9433 eV   73.18 nm  f=0.0757  <S**2>=0.000
       7 -> 17        -0.25034
       7 -> 18         0.10982
      10 -> 19        -0.24299
      10 -> 23         0.42903
      13 -> 24         0.34617
      13 -> 25        -0.11048

 Excited State  49:      Singlet-A1    17.0782 eV   72.60 nm  f=0.0629  <S**2>=0.000
       8 -> 14        -0.18232
       8 -> 17         0.44519
       8 -> 18        -0.24476
      11 -> 21         0.14158
      11 -> 25         0.22804
      12 -> 23         0.25461

 Excited State  50:      Singlet-B2    17.1426 eV   72.32 nm  f=0.0358  <S**2>=0.000
       9 -> 14        -0.22082
       9 -> 17         0.50808
       9 -> 18        -0.13631
      10 -> 22        -0.12004
      11 -> 19        -0.11385
      11 -> 23         0.19972
      12 -> 25         0.19548
      13 -> 26         0.13316

 Excited State  51:      Singlet-B2    17.2998 eV   71.67 nm  f=0.0952  <S**2>=0.000
       9 -> 17        -0.14798
      10 -> 22        -0.10943
      12 -> 24         0.19335
      12 -> 25         0.10842
      13 -> 20        -0.10021
      13 -> 26         0.59948

 Excited State  52:      Singlet-A1    17.3209 eV   71.58 nm  f=0.0031  <S**2>=0.000
       7 -> 16         0.30212
       8 -> 17        -0.26501
      10 -> 20        -0.14854
      11 -> 18        -0.10416
      11 -> 21         0.13877
      11 -> 24         0.29772
      11 -> 25         0.32568
      13 -> 27         0.18060

 Excited State  53:      Singlet-A2    17.3360 eV   71.52 nm  f=0.0000  <S**2>=0.000
       9 -> 16         0.66679
      11 -> 20        -0.16380

 Excited State  54:      Singlet-B1    17.3506 eV   71.46 nm  f=0.0109  <S**2>=0.000
       7 -> 17        -0.26125
       7 -> 18         0.14856
       8 -> 16         0.54848
       8 -> 22        -0.12406
      10 -> 19         0.11895
      10 -> 23        -0.16366
      12 -> 20        -0.13177

 Excited State  55:      Singlet-B1    17.5214 eV   70.76 nm  f=0.0242  <S**2>=0.000
       7 -> 17         0.40743
       7 -> 18        -0.19563
       8 -> 16         0.30345
      10 -> 19        -0.14741
      13 -> 28         0.35956

 Excited State  56:      Singlet-B2    17.6168 eV   70.38 nm  f=0.0568  <S**2>=0.000
       9 -> 17        -0.16800
       9 -> 18        -0.24554
       9 -> 21         0.12224
      10 -> 22         0.14530
      11 -> 23         0.18615
      12 -> 21         0.17626
      12 -> 24         0.44021
      12 -> 25         0.18714
      13 -> 26        -0.16875

 Excited State  57:      Singlet-A2    17.6930 eV   70.08 nm  f=0.0000  <S**2>=0.000
       7 -> 23         0.11339
      10 -> 18        -0.17901
      10 -> 24         0.40198
      10 -> 25         0.38323
      10 -> 28        -0.10430
      13 -> 29         0.31386

 Excited State  58:      Singlet-A1    17.7243 eV   69.95 nm  f=0.0664  <S**2>=0.000
       7 -> 16        -0.19721
      11 -> 24        -0.19175
      13 -> 27         0.61151

 Excited State  59:      Singlet-B1    17.8039 eV   69.64 nm  f=0.0558  <S**2>=0.000
       7 -> 17        -0.21603
       7 -> 18         0.10920
       8 -> 16        -0.20256
      10 -> 23        -0.18032
      13 -> 25         0.10558
      13 -> 28         0.56393

 Excited State  60:      Singlet-A1    17.8089 eV   69.62 nm  f=0.0003  <S**2>=0.000
       7 -> 16         0.50298
       8 -> 17         0.18485
       9 -> 15         0.15871
      10 -> 20        -0.13369
      11 -> 24        -0.25427
      13 -> 30         0.20738

 Excited State  61:      Singlet-A2    17.8710 eV   69.38 nm  f=0.0000  <S**2>=0.000
      10 -> 18         0.10861
      10 -> 21        -0.22636
      10 -> 24        -0.11631
      10 -> 25        -0.23578
      13 -> 23        -0.20052
      13 -> 29         0.54015

 Excited State  62:      Singlet-B2    18.1667 eV   68.25 nm  f=0.0235  <S**2>=0.000
       9 -> 17        -0.18683
       9 -> 18        -0.12202
       9 -> 21         0.14282
      11 -> 19         0.17197
      12 -> 24        -0.40675
      12 -> 25         0.41606

 Excited State  63:      Singlet-A1    18.3214 eV   67.67 nm  f=0.0452  <S**2>=0.000
       7 -> 16        -0.12249
       8 -> 17        -0.14427
       9 -> 19         0.12164
      11 -> 24        -0.37052
      11 -> 25         0.39582
      13 -> 27        -0.15540
      13 -> 30         0.26734

 Excited State  64:      Singlet-A2    18.6212 eV   66.58 nm  f=0.0000  <S**2>=0.000
       7 -> 15        -0.12001
       7 -> 19        -0.13077
      10 -> 24         0.50094
      10 -> 25        -0.41181

 Excited State  65:      Singlet-A1    18.6482 eV   66.49 nm  f=0.0372  <S**2>=0.000
       8 -> 17         0.19950
       8 -> 18         0.48551
       8 -> 21        -0.18883
       8 -> 24         0.10299
       9 -> 15        -0.10423
       9 -> 23        -0.16585
      11 -> 25         0.18279
      12 -> 29         0.16955
      13 -> 30        -0.16180

 Excited State  66:      Singlet-B2    18.6856 eV   66.35 nm  f=0.0689  <S**2>=0.000
       8 -> 19         0.14562
       9 -> 14         0.11076
       9 -> 17         0.11474
       9 -> 18         0.53855
       9 -> 21         0.16822
      10 -> 22         0.13120
      11 -> 23         0.14786
      11 -> 29        -0.16441
      12 -> 25         0.13849

 Excited State  67:      Singlet-A1    18.7139 eV   66.25 nm  f=0.0000  <S**2>=0.000
       7 -> 16        -0.14479
       7 -> 22        -0.12202
       8 -> 17         0.14184
       8 -> 18         0.21512
       9 -> 19         0.10965
      11 -> 24         0.27107
      11 -> 25        -0.10049
      13 -> 30         0.49372
      13 -> 31        -0.10225

 Excited State  68:      Singlet-B1    18.7826 eV   66.01 nm  f=0.0261  <S**2>=0.000
       7 -> 14         0.11690
       7 -> 17         0.30981
       7 -> 18         0.52261
       7 -> 24         0.14335
      11 -> 27        -0.12565
      12 -> 26         0.14262
      13 -> 32         0.12217

 Excited State  69:      Singlet-B1    19.0062 eV   65.23 nm  f=0.0409  <S**2>=0.000
       7 -> 18        -0.12825
       8 -> 22        -0.31977
       9 -> 20        -0.23033
      12 -> 26         0.53475

 Excited State  70:      Singlet-A2    19.0476 eV   65.09 nm  f=0.0000  <S**2>=0.000
       8 -> 20         0.14438
       9 -> 22        -0.28954
      11 -> 26         0.53537
      12 -> 27        -0.27726

 Excited State  71:      Singlet-B2    19.1104 eV   64.88 nm  f=0.1534  <S**2>=0.000
       8 -> 15         0.14956
       8 -> 19         0.26166
       8 -> 23         0.22544
       9 -> 18        -0.11639
       9 -> 21         0.41147
      11 -> 29        -0.14290
      12 -> 25        -0.27722
      12 -> 28        -0.15791

 Excited State  72:      Singlet-A2    19.1447 eV   64.76 nm  f=0.0000  <S**2>=0.000
       8 -> 20         0.31733
       9 -> 22         0.46364
      12 -> 27        -0.38420
      12 -> 31         0.10754

 Excited State  73:      Singlet-B1    19.2197 eV   64.51 nm  f=0.0018  <S**2>=0.000
       6 -> 16        -0.10853
       8 -> 22         0.16398
       9 -> 20         0.47305
      11 -> 27        -0.33319
      12 -> 26         0.30269

 Excited State  74:      Singlet-A1    19.2305 eV   64.47 nm  f=0.0059  <S**2>=0.000
       8 -> 18        -0.21563
       8 -> 21        -0.32663
       9 -> 19        -0.16675
      10 -> 26         0.10576
      12 -> 29         0.45577
      13 -> 30         0.13340

 Excited State  75:      Singlet-A1    19.5082 eV   63.55 nm  f=0.0985  <S**2>=0.000
       7 -> 22        -0.22186
       9 -> 15         0.13637
       9 -> 19         0.44320
       9 -> 23         0.11870
      10 -> 26        -0.10010
      12 -> 29         0.20247
      13 -> 30        -0.15799
      13 -> 31        -0.26849

 Excited State  76:      Singlet-B1    19.6250 eV   63.18 nm  f=0.0221  <S**2>=0.000
       7 -> 18         0.10489
       7 -> 21         0.40512
       8 -> 22        -0.23040
      10 -> 29        -0.31587
      11 -> 27        -0.19919
      12 -> 26        -0.20292
      13 -> 32        -0.20728

 Excited State  77:      Singlet-A2    19.6400 eV   63.13 nm  f=0.0000  <S**2>=0.000
       7 -> 15         0.28308
       7 -> 19         0.38626
       7 -> 23         0.31568
       7 -> 29         0.13230
      10 -> 25        -0.18177
      10 -> 28        -0.20238
      11 -> 26        -0.16166

 Excited State  78:      Singlet-A1    19.6447 eV   63.11 nm  f=0.1425  <S**2>=0.000
       7 -> 22         0.39193
       9 -> 19         0.24204
      10 -> 26        -0.35884
      12 -> 29         0.10500

 The electronic state is 1-A1.
 Alpha  occ. eigenvalues --  -24.50815 -24.50814 -10.29086  -1.37469  -1.30995
 Alpha  occ. eigenvalues --   -0.84708  -0.69446  -0.68981  -0.68264  -0.56072
 Alpha  occ. eigenvalues --   -0.54769  -0.53778  -0.47400
 Alpha virt. eigenvalues --    0.08879   0.14160   0.14935   0.15007   0.20332
 Alpha virt. eigenvalues --    0.21682   0.22119   0.22704   0.23992   0.27517
 Alpha virt. eigenvalues --    0.32254   0.34004   0.36616   0.38141   0.39180

 Mulliken charges:
               1
     1  F   -0.382644
     2  C    1.011009
     3  F   -0.382644
     4  H   -0.122860
     5  H   -0.122860
 Sum of Mulliken charges =  -0.00000

 Dipole moment (field-independent basis, Debye):
    X=              0.0000    Y=              0.0000    Z=              2.0062  Tot=              2.0062
 Quadrupole moment (field-independent basis, Debye-Ang):
   XX=            -15.4116   YY=            -19.3286   ZZ=            -15.4640
   XY=             -0.0000   XZ=              0.0000   YZ=             -0.0000

 Normal termination of Gaussian 16 at Mon Mar 21 20:06:31 2022.
