 Gaussian 16, Revision C.01,
 Gaussian 16:  EM64L-G16RevC.01  3-Jul-2019

 ----------------------------------------------------------------------
 #P TD(Nstates=10000) lc-whpbe/Gen SCF(maxcycles=100) Int(Grid=ultrafin
 e)
 ----------------------------------------------------------------------

 ---------------------
 xGDB7_00001_tier4.com
 ---------------------
 Symbolic Z-matrix:
 Charge =  0 Multiplicity = 1

                         Standard orientation:
 ---------------------------------------------------------------------
 Center     Atomic      Atomic             Coordinates (Angstroms)
 Number     Number       Type             X           Y           Z
 ---------------------------------------------------------------------
      1          7           0        1.106441    0.142513   -0.090982
      2          7           0       -0.080753   -0.512520    0.006066
      3          6           0       -1.148696    0.167456    0.008166
      4          1           0        1.854749   -0.409916    0.291533
      5          1           0        1.109676    1.100453    0.242713
      6          1           0       -2.089851   -0.366199    0.035249
      7          1           0       -1.162209    1.260974   -0.024080
 ---------------------------------------------------------------------

 SCF Done:  E(RLC-wHPBE) =  -149.767473774     A.U. after   14 cycles

 Excitation energies and oscillator strengths:

 Excited State   1:      Singlet-A      5.9137 eV  209.66 nm  f=0.0037  <S**2>=0.000
      11 -> 13         0.66614
      11 -> 14        -0.17303
      12 -> 13         0.10164
 This state for optimization and/or second-order correction.
 Total Energy, E(TD-HF/TD-DFT) =  -149.550150522
 Copying the excited state density for this state as the 1-particle RhoCI density.

 Excited State   2:      Singlet-A      6.3735 eV  194.53 nm  f=0.2281  <S**2>=0.000
      11 -> 13        -0.10125
      12 -> 13         0.68528

 Excited State   3:      Singlet-A      7.0695 eV  175.38 nm  f=0.0158  <S**2>=0.000
      12 -> 14         0.60582
      12 -> 15         0.31951

 Excited State   4:      Singlet-A      8.1818 eV  151.54 nm  f=0.0293  <S**2>=0.000
      12 -> 14        -0.26991
      12 -> 15         0.57469
      12 -> 16         0.23020
      12 -> 18        -0.10063

 Excited State   5:      Singlet-A      8.5242 eV  145.45 nm  f=0.0269  <S**2>=0.000
      11 -> 13         0.17603
      11 -> 14         0.63484
      11 -> 15         0.14854
      11 -> 18         0.12342

 Excited State   6:      Singlet-A      8.6784 eV  142.86 nm  f=0.0222  <S**2>=0.000
      12 -> 14         0.13933
      12 -> 15        -0.17345
      12 -> 16         0.64122

 Excited State   7:      Singlet-A      9.2951 eV  133.39 nm  f=0.0068  <S**2>=0.000
      12 -> 14        -0.12206
      12 -> 15         0.10228
      12 -> 17         0.58282
      12 -> 18         0.27340
      12 -> 27        -0.12553

 Excited State   8:      Singlet-A      9.4448 eV  131.27 nm  f=0.0243  <S**2>=0.000
      11 -> 14        -0.16648
      11 -> 15         0.64078
      11 -> 16         0.12216

 Excited State   9:      Singlet-A      9.8562 eV  125.79 nm  f=0.0060  <S**2>=0.000
       9 -> 13         0.54407
       9 -> 14        -0.15150
      10 -> 13         0.33980
      12 -> 18        -0.17211

 Excited State  10:      Singlet-A      9.9118 eV  125.09 nm  f=0.0178  <S**2>=0.000
       9 -> 13         0.10411
      11 -> 16        -0.17454
      12 -> 17        -0.26452
      12 -> 18         0.50561
      12 -> 19         0.27381

 Excited State  11:      Singlet-A     10.0160 eV  123.79 nm  f=0.1671  <S**2>=0.000
      11 -> 15        -0.12880
      11 -> 16         0.63300
      11 -> 18         0.11495
      12 -> 18         0.14420

 Excited State  12:      Singlet-A     10.3301 eV  120.02 nm  f=0.0000  <S**2>=0.000
      12 -> 18        -0.24185
      12 -> 19         0.61782

 Excited State  13:      Singlet-A     10.5697 eV  117.30 nm  f=0.0580  <S**2>=0.000
       9 -> 13        -0.15393
      10 -> 13         0.22006
      11 -> 14        -0.11708
      11 -> 17         0.44545
      11 -> 18         0.37723
      11 -> 27        -0.11631
      12 -> 20        -0.13095

 Excited State  14:      Singlet-A     10.8348 eV  114.43 nm  f=0.0861  <S**2>=0.000
       9 -> 13        -0.31888
      10 -> 13         0.50147
      10 -> 14        -0.10878
      11 -> 17        -0.17938
      11 -> 18        -0.21499

 Excited State  15:      Singlet-A     11.0589 eV  112.11 nm  f=0.0976  <S**2>=0.000
      11 -> 17         0.45796
      11 -> 18        -0.43775
      11 -> 19        -0.19974
      12 -> 20         0.10329

 Excited State  16:      Singlet-A     11.2428 eV  110.28 nm  f=0.0081  <S**2>=0.000
      11 -> 18         0.23834
      11 -> 19        -0.34463
      12 -> 20         0.53259

 Excited State  17:      Singlet-A     11.3671 eV  109.07 nm  f=0.1042  <S**2>=0.000
      11 -> 19         0.32501
      12 -> 20         0.24628
      12 -> 21         0.51968

 Excited State  18:      Singlet-A     11.3878 eV  108.88 nm  f=0.0045  <S**2>=0.000
      11 -> 19         0.45522
      12 -> 20         0.27824
      12 -> 21        -0.41085

 Excited State  19:      Singlet-A     11.6970 eV  106.00 nm  f=0.0544  <S**2>=0.000
      10 -> 14        -0.16893
      10 -> 18        -0.10286
      12 -> 22         0.63722

 Excited State  20:      Singlet-A     11.9108 eV  104.09 nm  f=0.0625  <S**2>=0.000
      10 -> 13         0.14328
      10 -> 14         0.54614
      10 -> 15         0.29250
      12 -> 22         0.18362
      12 -> 27        -0.10608

 Excited State  21:      Singlet-A     12.2558 eV  101.16 nm  f=0.0062  <S**2>=0.000
       8 -> 13         0.64750
       8 -> 14        -0.16967

 Excited State  22:      Singlet-A     12.2854 eV  100.92 nm  f=0.0142  <S**2>=0.000
       9 -> 14        -0.11134
      11 -> 20         0.62754
      11 -> 22         0.13790
      11 -> 23         0.11968
      12 -> 24        -0.12594

 Excited State  23:      Singlet-A     12.3942 eV  100.03 nm  f=0.1206  <S**2>=0.000
       9 -> 13         0.12597
       9 -> 14         0.48040
      10 -> 14         0.10412
      10 -> 15        -0.14327
      11 -> 20         0.11723
      11 -> 21        -0.12265
      11 -> 22         0.14609
      12 -> 23         0.12456
      12 -> 24         0.30061

 Excited State  24:      Singlet-A     12.4623 eV   99.49 nm  f=0.0541  <S**2>=0.000
       9 -> 14         0.34020
      11 -> 21         0.39505
      12 -> 23        -0.24563
      12 -> 24        -0.28441

 Excited State  25:      Singlet-A     12.5126 eV   99.09 nm  f=0.0817  <S**2>=0.000
       9 -> 14        -0.16668
      11 -> 20         0.11821
      11 -> 21         0.48260
      11 -> 22        -0.10592
      12 -> 23         0.18264
      12 -> 24         0.35424

 Excited State  26:      Singlet-A     12.7001 eV   97.62 nm  f=0.0035  <S**2>=0.000
      11 -> 22        -0.11540
      12 -> 23         0.54575
      12 -> 24        -0.30317

 Excited State  27:      Singlet-A     12.8880 eV   96.20 nm  f=0.1267  <S**2>=0.000
      11 -> 20        -0.17783
      11 -> 21         0.18982
      11 -> 22         0.58791
      11 -> 23         0.10410

 Excited State  28:      Singlet-A     12.9985 eV   95.38 nm  f=0.0308  <S**2>=0.000
       9 -> 14         0.14879
      10 -> 14        -0.26292
      10 -> 15         0.49037
      10 -> 16         0.13299
      12 -> 24         0.12359
      12 -> 25        -0.15806
      12 -> 26        -0.12783
      12 -> 27        -0.17294

 Excited State  29:      Singlet-A     13.0476 eV   95.02 nm  f=0.1588  <S**2>=0.000
      10 -> 16        -0.15684
      12 -> 24         0.10238
      12 -> 25         0.56745
      12 -> 26        -0.12411
      12 -> 27        -0.19777

 Excited State  30:      Singlet-A     13.1696 eV   94.14 nm  f=0.0308  <S**2>=0.000
       9 -> 15         0.18055
      10 -> 15         0.21087
      10 -> 16         0.27173
      12 -> 25         0.23502
      12 -> 26         0.23588
      12 -> 27         0.37335

 Excited State  31:      Singlet-A     13.3897 eV   92.60 nm  f=0.0998  <S**2>=0.000
       7 -> 13         0.17743
       7 -> 14         0.10509
       9 -> 15         0.49105
      10 -> 16        -0.33225
      11 -> 23         0.13275
      12 -> 25        -0.10192

 Excited State  32:      Singlet-A     13.4421 eV   92.24 nm  f=0.0226  <S**2>=0.000
      11 -> 22        -0.14266
      11 -> 23         0.62890
      11 -> 24        -0.11723

 Excited State  33:      Singlet-A     13.6083 eV   91.11 nm  f=0.0852  <S**2>=0.000
       9 -> 15         0.26452
      10 -> 15        -0.18798
      10 -> 16         0.40755
      12 -> 26        -0.37739

 Excited State  34:      Singlet-A     13.7275 eV   90.32 nm  f=0.0550  <S**2>=0.000
       9 -> 15         0.10634
       9 -> 17        -0.10329
      10 -> 16         0.19230
      12 -> 26         0.45199
      12 -> 27        -0.39707

 Excited State  35:      Singlet-A     13.8291 eV   89.65 nm  f=0.0181  <S**2>=0.000
       7 -> 13         0.60499
       7 -> 14        -0.16211
       9 -> 15        -0.10184
       9 -> 16        -0.12008
      11 -> 24        -0.17580

 Excited State  36:      Singlet-A     13.9166 eV   89.09 nm  f=0.0395  <S**2>=0.000
       7 -> 13         0.17438
      11 -> 24         0.60678

 Excited State  37:      Singlet-A     14.0628 eV   88.16 nm  f=0.0189  <S**2>=0.000
       9 -> 16         0.46209
       9 -> 17        -0.12793
      10 -> 17        -0.30055
      11 -> 25        -0.12135
      11 -> 27        -0.18706

 Excited State  38:      Singlet-A     14.2339 eV   87.10 nm  f=0.0011  <S**2>=0.000
       9 -> 16         0.29702
       9 -> 17        -0.12946
      10 -> 14        -0.11211
      10 -> 17         0.45274
      10 -> 18         0.19930
      10 -> 27        -0.11514
      12 -> 21         0.10015
      12 -> 27         0.12161

 Excited State  39:      Singlet-A     14.2474 eV   87.02 nm  f=0.0324  <S**2>=0.000
       9 -> 15         0.10484
       9 -> 16        -0.10988
       9 -> 18        -0.14922
       9 -> 19        -0.12766
      10 -> 18        -0.10908
      11 -> 25         0.50184
      11 -> 26        -0.22738
      11 -> 27        -0.21906

 Excited State  40:      Singlet-A     14.5148 eV   85.42 nm  f=0.0938  <S**2>=0.000
       9 -> 16         0.22301
      10 -> 18        -0.10266
      11 -> 17         0.10909
      11 -> 25         0.28460
      11 -> 26         0.33326
      11 -> 27         0.38200

 Excited State  41:      Singlet-A     14.6494 eV   84.63 nm  f=0.0380  <S**2>=0.000
       8 -> 14         0.22056
       9 -> 17         0.10871
       9 -> 18         0.23985
      10 -> 17        -0.20972
      10 -> 18         0.42106
      10 -> 19         0.18774
      11 -> 25         0.21054

 Excited State  42:      Singlet-A     14.8268 eV   83.62 nm  f=0.0313  <S**2>=0.000
       8 -> 13         0.11453
       8 -> 14         0.37407
       9 -> 16         0.11022
       9 -> 18         0.32360
      10 -> 18        -0.24538
      10 -> 19        -0.25325
      11 -> 26        -0.11585

 Excited State  43:      Singlet-A     14.9184 eV   83.11 nm  f=0.0079  <S**2>=0.000
       8 -> 14         0.36622
       9 -> 16        -0.10686
       9 -> 17        -0.27517
       9 -> 18        -0.22966
       9 -> 19        -0.12524
      11 -> 25        -0.10640
      11 -> 26         0.29534
      11 -> 27        -0.16724

 Excited State  44:      Singlet-A     14.9500 eV   82.93 nm  f=0.0141  <S**2>=0.000
       7 -> 15        -0.12445
       8 -> 14        -0.22517
       9 -> 18         0.25688
       9 -> 19         0.15388
      10 -> 19        -0.12075
      11 -> 25         0.13373
      11 -> 26         0.36476
      11 -> 27        -0.29468

 Excited State  45:      Singlet-A     15.0799 eV   82.22 nm  f=0.0530  <S**2>=0.000
       8 -> 14         0.14715
      10 -> 18        -0.29260
      10 -> 19         0.49424
      10 -> 20        -0.10173
      12 -> 28         0.19675

 Excited State  46:      Singlet-A     15.1221 eV   81.99 nm  f=0.0295  <S**2>=0.000
       9 -> 17         0.15892
      10 -> 20        -0.14196
      10 -> 21         0.12947
      11 -> 25        -0.10030
      11 -> 26         0.10017
      11 -> 27        -0.13898
      12 -> 28        -0.34360
      12 -> 29         0.43850

 Excited State  47:      Singlet-A     15.2839 eV   81.12 nm  f=0.0298  <S**2>=0.000
       9 -> 17         0.35271
       9 -> 19        -0.27232
      10 -> 19        -0.11365
      10 -> 20        -0.16752
      11 -> 26         0.11816
      11 -> 27        -0.14320
      12 -> 28         0.27150
      12 -> 30         0.14891

 Excited State  48:      Singlet-A     15.3543 eV   80.75 nm  f=0.0248  <S**2>=0.000
       7 -> 14        -0.13866
       7 -> 15        -0.11662
       9 -> 17        -0.23737
       9 -> 18         0.10357
      11 -> 27         0.11000
      12 -> 28         0.33510
      12 -> 29         0.34373
      12 -> 30         0.18248
      12 -> 31         0.10720

 Excited State  49:      Singlet-A     15.4767 eV   80.11 nm  f=0.1520  <S**2>=0.000
       6 -> 13        -0.10747
       8 -> 14         0.11254
       9 -> 17         0.12947
       9 -> 18        -0.21309
       9 -> 19         0.53271
      10 -> 19        -0.13584

 Excited State  50:      Singlet-A     15.5796 eV   79.58 nm  f=0.0573  <S**2>=0.000
       7 -> 14        -0.15381
       7 -> 15        -0.11101
      12 -> 28        -0.18771
      12 -> 29        -0.25110
      12 -> 30         0.48039
      12 -> 32        -0.14396

 Excited State  51:      Singlet-A     15.6624 eV   79.16 nm  f=0.0422  <S**2>=0.000
       7 -> 13         0.10343
       7 -> 14         0.38598
       7 -> 15         0.26800
       8 -> 15         0.14501
       9 -> 15        -0.18284
       9 -> 18         0.11896
      10 -> 20         0.17239
      12 -> 30         0.27970

 Excited State  52:      Singlet-A     15.8257 eV   78.34 nm  f=0.0286  <S**2>=0.000
       6 -> 14        -0.11521
       7 -> 14        -0.22316
       8 -> 15         0.45309
       8 -> 16        -0.13233
       8 -> 18         0.11789
       9 -> 18        -0.11893
      10 -> 20         0.27194
      12 -> 29         0.10260
      12 -> 30         0.10713

 Excited State  53:      Singlet-A     15.9240 eV   77.86 nm  f=0.0115  <S**2>=0.000
       6 -> 13         0.20108
       8 -> 15        -0.29654
       9 -> 17         0.13857
       9 -> 20         0.10220
      10 -> 20         0.45458
      11 -> 29         0.10135
      11 -> 30         0.11046

 Excited State  54:      Singlet-A     16.0392 eV   77.30 nm  f=0.0226  <S**2>=0.000
       6 -> 13         0.14701
       8 -> 15         0.15875
       9 -> 22        -0.12145
       9 -> 23        -0.15563
      10 -> 20        -0.13923
      10 -> 21         0.15405
      11 -> 28        -0.32552
      11 -> 29         0.33765
      11 -> 30         0.23741
      12 -> 31         0.10662

 Excited State  55:      Singlet-A     16.0713 eV   77.15 nm  f=0.0587  <S**2>=0.000
       6 -> 13        -0.12886
       8 -> 16         0.11020
      10 -> 21         0.48116
      11 -> 28         0.17470
      12 -> 31         0.20713
      12 -> 32        -0.21839

 Excited State  56:      Singlet-A     16.1940 eV   76.56 nm  f=0.0431  <S**2>=0.000
       6 -> 13         0.38355
       8 -> 16         0.22171
       9 -> 20         0.20429
       9 -> 21         0.18323
      10 -> 20        -0.12456
      11 -> 28         0.25942
      12 -> 31        -0.18127

 Excited State  57:      Singlet-A     16.2585 eV   76.26 nm  f=0.1394  <S**2>=0.000
       6 -> 13         0.19238
       8 -> 16        -0.21256
      10 -> 23        -0.11078
      11 -> 28         0.20776
      12 -> 28        -0.11782
      12 -> 31         0.47893
      12 -> 32         0.10049
      12 -> 33         0.13393

 Excited State  58:      Singlet-A     16.2808 eV   76.15 nm  f=0.0649  <S**2>=0.000
       6 -> 13        -0.28766
       9 -> 20         0.30799
       9 -> 21         0.16778
      10 -> 21        -0.16820
      10 -> 22         0.12798
      11 -> 29         0.16922
      11 -> 30         0.21666
      12 -> 32         0.11610
      12 -> 33         0.21602

 Excited State  59:      Singlet-A     16.3695 eV   75.74 nm  f=0.0756  <S**2>=0.000
       8 -> 15         0.10207
       8 -> 16         0.44552
       8 -> 17        -0.14557
      10 -> 21        -0.17094
      10 -> 22         0.13799
      11 -> 28        -0.17224
      11 -> 29        -0.10443
      12 -> 31         0.28108

 Excited State  60:      Singlet-A     16.4277 eV   75.47 nm  f=0.0374  <S**2>=0.000
       8 -> 16        -0.14676
       9 -> 20         0.47478
       9 -> 21        -0.10109
       9 -> 23         0.22299
      11 -> 28        -0.18310
      11 -> 30        -0.23218

 Excited State  61:      Singlet-A     16.5395 eV   74.96 nm  f=0.0067  <S**2>=0.000
       8 -> 16         0.17309
       9 -> 22        -0.10115
      10 -> 21         0.18768
      10 -> 22        -0.32029
      11 -> 29        -0.10098
      11 -> 30        -0.10174
      12 -> 32         0.22175
      12 -> 33         0.38895

 Excited State  62:      Singlet-A     16.6066 eV   74.66 nm  f=0.0137  <S**2>=0.000
       6 -> 13         0.14821
       9 -> 22        -0.16348
      10 -> 22         0.32282
      10 -> 23        -0.15913
      10 -> 25         0.11270
      11 -> 29        -0.14099
      12 -> 31        -0.17205
      12 -> 32        -0.20654
      12 -> 33         0.23170
      12 -> 34        -0.22424

 Excited State  63:      Singlet-A     16.7170 eV   74.17 nm  f=0.0970  <S**2>=0.000
       6 -> 13         0.11002
       7 -> 15         0.10717
       9 -> 21        -0.18452
       9 -> 22         0.34466
       9 -> 23         0.21126
       9 -> 24        -0.11167
      10 -> 21         0.11069
      10 -> 22         0.14736
      10 -> 23         0.11981
      11 -> 29         0.17150
      12 -> 33         0.19417
      12 -> 34        -0.16886

 Excited State  64:      Singlet-A     16.7250 eV   74.13 nm  f=0.0797  <S**2>=0.000
       7 -> 17        -0.22679
       7 -> 18        -0.12001
       9 -> 21         0.35815
      10 -> 22         0.13797
      11 -> 28        -0.27247
      11 -> 30        -0.28505
      12 -> 32         0.10485

 Excited State  65:      Singlet-A     16.8454 eV   73.60 nm  f=0.0379  <S**2>=0.000
       7 -> 15        -0.20017
       7 -> 16        -0.12167
      10 -> 21         0.13697
      10 -> 22         0.16764
      10 -> 23         0.13133
      10 -> 24         0.19062
      11 -> 28        -0.10354
      11 -> 29        -0.25256
      11 -> 30         0.30732
      12 -> 29        -0.10604
      12 -> 32         0.21021
      12 -> 34         0.12417
      12 -> 36        -0.12034

 Excited State  66:      Singlet-A     16.9695 eV   73.06 nm  f=0.0670  <S**2>=0.000
       7 -> 14         0.15607
       7 -> 15        -0.17673
       7 -> 19         0.10424
       9 -> 22        -0.18797
      10 -> 22         0.20957
      10 -> 24         0.16044
      11 -> 28         0.14978
      11 -> 29         0.35435
      11 -> 30        -0.22673
      12 -> 34         0.13683

 Excited State  67:      Singlet-A     17.0248 eV   72.83 nm  f=0.2070  <S**2>=0.000
       7 -> 14        -0.16417
       7 -> 15         0.27832
       8 -> 15        -0.10975
       8 -> 17         0.18806
       8 -> 18         0.27486
       9 -> 21        -0.17612
       9 -> 22        -0.14021
      10 -> 22         0.15377
      10 -> 24         0.12212
      12 -> 34         0.23238

 Excited State  68:      Singlet-A     17.0507 eV   72.71 nm  f=0.0790  <S**2>=0.000
       7 -> 16        -0.10381
       8 -> 17         0.17122
       8 -> 18         0.31448
       9 -> 21         0.23101
       9 -> 23         0.15209
      10 -> 23         0.21938
      12 -> 34        -0.27133
      12 -> 35        -0.12884

 Excited State  69:      Singlet-A     17.1547 eV   72.27 nm  f=0.0820  <S**2>=0.000
       9 -> 21         0.11591
       9 -> 23         0.23084
      10 -> 24        -0.28392
      11 -> 30         0.12505
      12 -> 32        -0.25633
      12 -> 33         0.14215
      12 -> 34         0.35289

 Excited State  70:      Singlet-A     17.2042 eV   72.07 nm  f=0.0991  <S**2>=0.000
       6 -> 15         0.11384
       7 -> 14         0.17900
       7 -> 15        -0.20301
       7 -> 16        -0.13341
       8 -> 17        -0.13880
       8 -> 18         0.34402
       9 -> 22         0.20748
       9 -> 23        -0.13791
      10 -> 23        -0.18714
      12 -> 35         0.10618
      12 -> 36        -0.14430

 Excited State  71:      Singlet-A     17.2904 eV   71.71 nm  f=0.0695  <S**2>=0.000
       6 -> 16        -0.11282
       7 -> 15        -0.11840
       7 -> 16        -0.10162
       8 -> 16         0.13435
       8 -> 17         0.42122
       8 -> 19         0.10762
       9 -> 22         0.17633
      10 -> 23        -0.17111
      10 -> 24        -0.10756
      11 -> 31        -0.10429
      12 -> 32         0.12042
      12 -> 33        -0.10880
      12 -> 35        -0.19423

 Excited State  72:      Singlet-A     17.3378 eV   71.51 nm  f=0.0634  <S**2>=0.000
       8 -> 17        -0.19252
       8 -> 18         0.19522
      10 -> 24        -0.25314
      12 -> 32         0.24530
      12 -> 33        -0.20515
      12 -> 35        -0.23085
      12 -> 36         0.27981

 Excited State  73:      Singlet-A     17.4087 eV   71.22 nm  f=0.0826  <S**2>=0.000
       7 -> 14         0.14114
       7 -> 15        -0.10062
       7 -> 16         0.41454
       8 -> 19         0.10948
       9 -> 22         0.10225
       9 -> 23        -0.14060

 The electronic state is 1-A.
 Alpha  occ. eigenvalues --  -14.25045 -14.24384 -10.14331  -1.13387  -0.93934
 Alpha  occ. eigenvalues --   -0.74357  -0.66209  -0.63334  -0.54594  -0.52461
 Alpha  occ. eigenvalues --   -0.39291  -0.35275
 Alpha virt. eigenvalues --    0.08569   0.10020   0.13176   0.16725   0.20343
 Alpha virt. eigenvalues --    0.21041   0.22421   0.26168   0.26739   0.28144
 Alpha virt. eigenvalues --    0.29931   0.30481   0.33244   0.34473   0.36976

 Mulliken charges:
               1
     1  N    0.129225
     2  N   -0.279828
     3  C    0.538061
     4  H    0.009514
     5  H    0.014228
     6  H   -0.303620
     7  H   -0.107581
 Sum of Mulliken charges =  -0.00000

 Dipole moment (field-independent basis, Debye):
    X=              0.3602    Y=              1.7078    Z=              1.0310  Tot=              2.0271
 Quadrupole moment (field-independent basis, Debye-Ang):
   XX=            -14.7230   YY=            -18.4633   ZZ=            -20.4844
   XY=             -0.3398   XZ=              1.8821   YZ=              0.3128

 Normal termination of Gaussian 16 at Mon Mar 21 20:10:15 2022.
