 Gaussian 16, Revision C.01,
 Gaussian 16:  EM64L-G16RevC.01  3-Jul-2019

 ----------------------------------------------------------------------
 #P TD(Nstates=10000) lc-whpbe/Gen SCF(maxcycles=100) Int(Grid=ultrafin
 e)
 ----------------------------------------------------------------------

 ---------------------
 xGDB7_00001_tier4.com
 ---------------------
 Symbolic Z-matrix:
 Charge =  0 Multiplicity = 1

                         Standard orientation:
 ---------------------------------------------------------------------
 Center     Atomic      Atomic             Coordinates (Angstroms)
 Number     Number       Type             X           Y           Z
 ---------------------------------------------------------------------
      1          6           0        0.037922   -0.393776    0.738519
      2          6           0        0.037922   -0.393776   -0.738519
      3          7           0        0.037922    0.865964    0.000000
      4          1           0        0.953211   -0.606479    1.276872
      5          1           0       -0.870248   -0.700655    1.244917
      6          1           0       -0.870248   -0.700655   -1.244917
      7          1           0        0.953211   -0.606479   -1.276872
      8          1           0       -0.886454    1.277834    0.000000
 ---------------------------------------------------------------------

 SCF Done:  E(RLC-wHPBE) =  -133.755652042     A.U. after   13 cycles

 Excitation energies and oscillator strengths:

 Excited State   1:      Singlet-A'     7.4482 eV  166.46 nm  f=0.0026  <S**2>=0.000
      12 -> 13         0.55864
      12 -> 15         0.40938
 This state for optimization and/or second-order correction.
 Total Energy, E(TD-HF/TD-DFT) =  -133.481935649
 Copying the excited state density for this state as the 1-particle RhoCI density.

 Excited State   2:      Singlet-A'     8.4790 eV  146.22 nm  f=0.0355  <S**2>=0.000
      12 -> 13        -0.39690
      12 -> 15         0.54526
      12 -> 17        -0.15034

 Excited State   3:      Singlet-A"     8.5055 eV  145.77 nm  f=0.0078  <S**2>=0.000
      12 -> 14         0.67882
      12 -> 18        -0.12646

 Excited State   4:      Singlet-A'     9.0266 eV  137.35 nm  f=0.0893  <S**2>=0.000
      12 -> 16         0.67093
      12 -> 20        -0.10118

 Excited State   5:      Singlet-A"     9.2505 eV  134.03 nm  f=0.0497  <S**2>=0.000
      12 -> 18         0.65253
      12 -> 21         0.16129

 Excited State   6:      Singlet-A'     9.7694 eV  126.91 nm  f=0.0227  <S**2>=0.000
      11 -> 13         0.59299
      11 -> 15         0.29544
      12 -> 17        -0.12561

 Excited State   7:      Singlet-A"    10.1221 eV  122.49 nm  f=0.0002  <S**2>=0.000
      10 -> 13         0.58834
      10 -> 15         0.35201

 Excited State   8:      Singlet-A'    10.1838 eV  121.75 nm  f=0.0087  <S**2>=0.000
      11 -> 13         0.22175
      11 -> 15        -0.13776
      12 -> 17         0.61726
      12 -> 20        -0.10307

 Excited State   9:      Singlet-A"    10.5869 eV  117.11 nm  f=0.0441  <S**2>=0.000
       9 -> 13        -0.41230
      10 -> 13        -0.11927
      10 -> 15         0.13462
      11 -> 14         0.51944

 Excited State  10:      Singlet-A'    10.6387 eV  116.54 nm  f=0.0655  <S**2>=0.000
       9 -> 14         0.10449
      11 -> 13        -0.23126
      11 -> 15         0.57658
      12 -> 17         0.22039
      12 -> 20         0.13339

 Excited State  11:      Singlet-A"    10.9584 eV  113.14 nm  f=0.0380  <S**2>=0.000
       9 -> 13         0.48507
       9 -> 17         0.11053
      11 -> 14         0.41142
      12 -> 19         0.10586
      12 -> 21         0.15881
      12 -> 22        -0.10572

 Excited State  12:      Singlet-A"    11.0512 eV  112.19 nm  f=0.1327  <S**2>=0.000
       9 -> 13         0.16903
      10 -> 13        -0.29859
      10 -> 15         0.56334
      10 -> 17        -0.11677
      12 -> 19        -0.12489

 Excited State  13:      Singlet-A'    11.1207 eV  111.49 nm  f=0.0270  <S**2>=0.000
      10 -> 14         0.63142
      12 -> 20        -0.23175

 Excited State  14:      Singlet-A'    11.1502 eV  111.19 nm  f=0.0117  <S**2>=0.000
       9 -> 14         0.15017
       9 -> 18        -0.10440
      10 -> 14         0.23693
      11 -> 15        -0.14397
      12 -> 16         0.10986
      12 -> 20         0.57778

 Excited State  15:      Singlet-A"    11.1628 eV  111.07 nm  f=0.0153  <S**2>=0.000
       9 -> 15        -0.16928
      10 -> 13        -0.11139
      11 -> 14        -0.12888
      12 -> 19         0.60847
      12 -> 21         0.14298

 Excited State  16:      Singlet-A'    11.2809 eV  109.91 nm  f=0.0446  <S**2>=0.000
      11 -> 16         0.64655
      11 -> 17         0.12975
      12 -> 23         0.10234

 Excited State  17:      Singlet-A"    11.4484 eV  108.30 nm  f=0.0481  <S**2>=0.000
       9 -> 15        -0.30149
      10 -> 16         0.41359
      11 -> 18        -0.40171
      12 -> 19        -0.13699

 Excited State  18:      Singlet-A"    11.6380 eV  106.53 nm  f=0.0241  <S**2>=0.000
       9 -> 15        -0.36691
      11 -> 18         0.19921
      12 -> 18        -0.10281
      12 -> 19        -0.21707
      12 -> 21         0.41985
      12 -> 22        -0.15384

 Excited State  19:      Singlet-A'    11.6718 eV  106.23 nm  f=0.0789  <S**2>=0.000
       9 -> 14         0.59464
       9 -> 18        -0.17078
      11 -> 16        -0.11714
      11 -> 17         0.11405
      12 -> 20        -0.16911

 Excited State  20:      Singlet-A"    11.7952 eV  105.11 nm  f=0.0876  <S**2>=0.000
       9 -> 13        -0.10454
       9 -> 15         0.28220
      10 -> 16         0.50540
      11 -> 18         0.26466
      12 -> 18        -0.10625
      12 -> 21         0.16358

 Excited State  21:      Singlet-A"    12.0011 eV  103.31 nm  f=0.0304  <S**2>=0.000
       9 -> 15        -0.29861
       9 -> 16        -0.11090
      10 -> 16         0.14287
      11 -> 14         0.10019
      11 -> 18         0.36169
      12 -> 21        -0.24041
      12 -> 22         0.34505

 Excited State  22:      Singlet-A'    12.0457 eV  102.93 nm  f=0.0968  <S**2>=0.000
       9 -> 14         0.12641
      10 -> 18         0.53174
      10 -> 21         0.10872
      11 -> 16         0.11175
      12 -> 23        -0.25010
      12 -> 24        -0.21941
      12 -> 27         0.11694

 Excited State  23:      Singlet-A"    12.3506 eV  100.39 nm  f=0.0071  <S**2>=0.000
       9 -> 15         0.16667
       9 -> 16        -0.18431
       9 -> 17        -0.12035
      11 -> 18        -0.15352
      12 -> 21         0.35057
      12 -> 22         0.49669

 Excited State  24:      Singlet-A'    12.3541 eV  100.36 nm  f=0.0099  <S**2>=0.000
       9 -> 18         0.51108
      11 -> 17         0.30518
      11 -> 20        -0.10866
      12 -> 23        -0.23581
      12 -> 24         0.10121

 Excited State  25:      Singlet-A'    12.3871 eV  100.09 nm  f=0.0213  <S**2>=0.000
       9 -> 14         0.14996
       9 -> 18         0.37980
      11 -> 17        -0.29496
      12 -> 23         0.40285
      12 -> 24        -0.13625

 Excited State  26:      Singlet-A"    12.5300 eV   98.95 nm  f=0.0964  <S**2>=0.000
       9 -> 16         0.59369
      10 -> 17         0.17813
      11 -> 19         0.10570
      12 -> 21         0.10705
      12 -> 22         0.19770

 Excited State  27:      Singlet-A'    12.5843 eV   98.52 nm  f=0.0143  <S**2>=0.000
      11 -> 17         0.40946
      12 -> 23         0.26763
      12 -> 24        -0.39948
      12 -> 25         0.21007

 Excited State  28:      Singlet-A"    12.8016 eV   96.85 nm  f=0.0328  <S**2>=0.000
       9 -> 16        -0.16555
      10 -> 13        -0.10670
      10 -> 17         0.64482

 Excited State  29:      Singlet-A'    12.8601 eV   96.41 nm  f=0.0290  <S**2>=0.000
      10 -> 18        -0.21842
      11 -> 17        -0.28701
      11 -> 20        -0.22513
      12 -> 23        -0.26795
      12 -> 24        -0.24967
      12 -> 25         0.34794

 Excited State  30:      Singlet-A'    12.9547 eV   95.71 nm  f=0.0035  <S**2>=0.000
       8 -> 13         0.10502
      12 -> 20         0.11426
      12 -> 24         0.34276
      12 -> 25         0.51498
      12 -> 27         0.18312

 Excited State  31:      Singlet-A"    13.2947 eV   93.26 nm  f=0.0018  <S**2>=0.000
       8 -> 14         0.11142
       9 -> 17         0.29191
      11 -> 19         0.53944
      12 -> 26        -0.21654

 Excited State  32:      Singlet-A"    13.4438 eV   92.22 nm  f=0.0007  <S**2>=0.000
       8 -> 14         0.11757
       9 -> 17         0.50566
      11 -> 19        -0.38312

 Excited State  33:      Singlet-A"    13.5770 eV   91.32 nm  f=0.0580  <S**2>=0.000
       9 -> 17         0.15470
       9 -> 20         0.11809
      11 -> 19         0.12608
      12 -> 26         0.61891

 Excited State  34:      Singlet-A'    13.5901 eV   91.23 nm  f=0.1207  <S**2>=0.000
       8 -> 15         0.13892
       9 -> 19        -0.12113
      10 -> 19        -0.14350
      10 -> 21        -0.12560
      11 -> 20         0.41832
      12 -> 25         0.17000
      12 -> 27        -0.35418
      12 -> 28         0.19527

 Excited State  35:      Singlet-A"    13.6922 eV   90.55 nm  f=0.0003  <S**2>=0.000
      10 -> 16         0.11428
      10 -> 20         0.65733

 Excited State  36:      Singlet-A'    13.7064 eV   90.46 nm  f=0.0089  <S**2>=0.000
       8 -> 13        -0.10836
      10 -> 19         0.62147
      12 -> 27        -0.18616
      12 -> 28         0.11440

 Excited State  37:      Singlet-A'    13.8989 eV   89.20 nm  f=0.0701  <S**2>=0.000
       8 -> 13         0.29691
       8 -> 15         0.21297
       9 -> 19        -0.14396
      10 -> 18        -0.15008
      10 -> 19         0.14006
      11 -> 20         0.13095
      11 -> 23         0.16530
      12 -> 23        -0.11608
      12 -> 24        -0.13398
      12 -> 27         0.33487
      12 -> 28         0.24300

 Excited State  38:      Singlet-A'    13.9984 eV   88.57 nm  f=0.0941  <S**2>=0.000
       8 -> 13         0.43902
       8 -> 15         0.13438
      10 -> 21         0.12604
      11 -> 20        -0.31491
      11 -> 24        -0.10380
      12 -> 27        -0.28671

 Excited State  39:      Singlet-A"    14.0075 eV   88.51 nm  f=0.0020  <S**2>=0.000
       9 -> 20        -0.15450
      11 -> 18        -0.13232
      11 -> 21         0.52892
      11 -> 22        -0.36622

 Excited State  40:      Singlet-A'    14.1835 eV   87.41 nm  f=0.1068  <S**2>=0.000
       8 -> 13        -0.26846
      10 -> 19        -0.17624
      10 -> 21         0.25430
      11 -> 20        -0.18662
      12 -> 24         0.12578
      12 -> 28         0.45845

 Excited State  41:      Singlet-A'    14.3048 eV   86.67 nm  f=0.0164  <S**2>=0.000
       8 -> 16         0.11344
       9 -> 19         0.39824
      10 -> 18         0.13843
      10 -> 21        -0.31440
      10 -> 22         0.12375
      11 -> 23         0.27754
      11 -> 24        -0.16063
      12 -> 28         0.19899

 Excited State  42:      Singlet-A"    14.4493 eV   85.81 nm  f=0.0042  <S**2>=0.000
       8 -> 14         0.16843
       8 -> 18        -0.16761
       9 -> 16         0.10607
       9 -> 17        -0.22145
       9 -> 20         0.38501
      11 -> 22        -0.31228
      12 -> 29        -0.25583

 Excited State  43:      Singlet-A"    14.4923 eV   85.55 nm  f=0.0844  <S**2>=0.000
       8 -> 14         0.25151
       9 -> 20         0.16244
       9 -> 23         0.10266
      11 -> 21         0.35339
      11 -> 22         0.44280
      12 -> 29        -0.12817

 Excited State  44:      Singlet-A'    14.5309 eV   85.32 nm  f=0.0333  <S**2>=0.000
       9 -> 19        -0.21393
      11 -> 23         0.56266
      12 -> 28        -0.18902

 Excited State  45:      Singlet-A'    14.5827 eV   85.02 nm  f=0.0814  <S**2>=0.000
       8 -> 13        -0.23698
       8 -> 15         0.49308
       9 -> 21        -0.20092
      11 -> 24        -0.24016
      12 -> 28        -0.15718

 Excited State  46:      Singlet-A"    14.7311 eV   84.16 nm  f=0.0004  <S**2>=0.000
       8 -> 14         0.10517
       9 -> 20         0.29863
      12 -> 22        -0.10988
      12 -> 29         0.54465
      12 -> 36        -0.12231

 Excited State  47:      Singlet-A'    14.7378 eV   84.13 nm  f=0.0207  <S**2>=0.000
       7 -> 13        -0.15562
       8 -> 15         0.16164
       9 -> 19        -0.19547
      10 -> 21        -0.18250
      10 -> 22         0.33431
      11 -> 20        -0.15857
      11 -> 24         0.40287

 Excited State  48:      Singlet-A"    14.8158 eV   83.68 nm  f=0.0757  <S**2>=0.000
       8 -> 14         0.30196
       9 -> 20        -0.14490
      10 -> 23         0.57380
      10 -> 24         0.11632

 Excited State  49:      Singlet-A'    14.9423 eV   82.98 nm  f=0.0310  <S**2>=0.000
       7 -> 13         0.15545
       9 -> 19         0.18906
       9 -> 21        -0.10497
      10 -> 18        -0.11343
      10 -> 21         0.31507
      10 -> 22         0.49756

 Excited State  50:      Singlet-A"    14.9866 eV   82.73 nm  f=0.0428  <S**2>=0.000
       8 -> 14         0.42327
       8 -> 18        -0.13338
       9 -> 20        -0.27353
      10 -> 23        -0.37132
      10 -> 24         0.14142
      11 -> 21        -0.10905

 Excited State  51:      Singlet-A'    15.0128 eV   82.59 nm  f=0.0201  <S**2>=0.000
       8 -> 15         0.14597
       9 -> 19         0.32932
       9 -> 21        -0.12054
      10 -> 21         0.18851
      10 -> 22        -0.23939
      11 -> 23         0.12290
      11 -> 24         0.40420
      11 -> 25         0.13727
      12 -> 27        -0.10173

 Excited State  52:      Singlet-A"    15.0868 eV   82.18 nm  f=0.0576  <S**2>=0.000
       8 -> 18         0.32073
      10 -> 24         0.54617
      12 -> 29        -0.18776

 Excited State  53:      Singlet-A'    15.2334 eV   81.39 nm  f=0.2727  <S**2>=0.000
       7 -> 13        -0.11474
       7 -> 15        -0.18586
       8 -> 15         0.22764
       8 -> 16        -0.28960
       9 -> 19         0.12711
       9 -> 21         0.40463
       9 -> 22        -0.14412
      10 -> 21         0.10207
      11 -> 25        -0.14276

 Excited State  54:      Singlet-A"    15.2339 eV   81.39 nm  f=0.0031  <S**2>=0.000
       8 -> 14         0.22550
       8 -> 18         0.48783
       8 -> 21         0.10061
      10 -> 24        -0.29433
      10 -> 25         0.21884

 Excited State  55:      Singlet-A'    15.3518 eV   80.76 nm  f=0.1733  <S**2>=0.000
       7 -> 15        -0.10944
      11 -> 25         0.53171
      11 -> 27         0.14978
      12 -> 30        -0.33815

 Excited State  56:      Singlet-A"    15.3908 eV   80.56 nm  f=0.0272  <S**2>=0.000
       9 -> 23         0.49790
       9 -> 24        -0.15826
      10 -> 24         0.15981
      10 -> 25         0.35284
      11 -> 26        -0.11034

 Excited State  57:      Singlet-A'    15.4666 eV   80.16 nm  f=0.0758  <S**2>=0.000
       9 -> 21         0.13793
       9 -> 22        -0.16176
      11 -> 25         0.28514
      11 -> 28        -0.10051
      12 -> 30         0.54096
      12 -> 32         0.11819

 Excited State  58:      Singlet-A'    15.4911 eV   80.04 nm  f=0.4375  <S**2>=0.000
       7 -> 13         0.45828
       8 -> 16         0.22327
       9 -> 21         0.12435
       9 -> 22        -0.28199
      11 -> 23        -0.12286
      12 -> 32        -0.10804

 Excited State  59:      Singlet-A'    15.5750 eV   79.60 nm  f=0.0288  <S**2>=0.000
       7 -> 13         0.33183
       7 -> 15         0.14509
       8 -> 16        -0.19628
       8 -> 17        -0.16669
       9 -> 22         0.41476
      10 -> 21        -0.12706
      10 -> 26         0.16847
      11 -> 27         0.14319
      12 -> 30         0.11608

 Excited State  60:      Singlet-A'    15.6661 eV   79.14 nm  f=0.1432  <S**2>=0.000
       8 -> 16         0.44825
       9 -> 21         0.29107
       9 -> 22         0.28820
      10 -> 21         0.16953
      12 -> 32        -0.12714

 Excited State  61:      Singlet-A"    15.7219 eV   78.86 nm  f=0.1706  <S**2>=0.000
       7 -> 14        -0.13946
       9 -> 23        -0.30084
       9 -> 24        -0.12688
      10 -> 25         0.43876
      10 -> 27         0.11693
      11 -> 26         0.29946

 Excited State  62:      Singlet-A"    15.8850 eV   78.05 nm  f=0.3293  <S**2>=0.000
       8 -> 18        -0.10312
       8 -> 19        -0.11290
       9 -> 24         0.55151
      10 -> 25         0.23008
      11 -> 26        -0.18310

 Excited State  63:      Singlet-A"    16.0003 eV   77.49 nm  f=0.0008  <S**2>=0.000
       7 -> 14        -0.14119
       9 -> 23         0.17057
       9 -> 24         0.14555
      10 -> 25        -0.17067
      10 -> 27         0.29522
      11 -> 26         0.32219
      12 -> 31         0.38265

 Excited State  64:      Singlet-A'    16.0152 eV   77.42 nm  f=0.0206  <S**2>=0.000
       7 -> 13        -0.12181
       7 -> 15        -0.16929
       8 -> 16         0.10328
       9 -> 21        -0.20677
      11 -> 20         0.11284
      11 -> 25        -0.14984
      11 -> 27         0.51019
      11 -> 28        -0.11684
      12 -> 32        -0.16278
      12 -> 33        -0.10140

 Excited State  65:      Singlet-A"    16.0478 eV   77.26 nm  f=0.0499  <S**2>=0.000
       7 -> 18        -0.13296
       9 -> 23        -0.18747
       9 -> 24        -0.15635
       9 -> 25        -0.23055
      11 -> 26        -0.36154
      12 -> 31         0.38926

 Excited State  66:      Singlet-A'    16.0842 eV   77.08 nm  f=0.2018  <S**2>=0.000
       7 -> 15        -0.10202
       9 -> 21         0.11827
       9 -> 22         0.12127
      10 -> 26        -0.22815
      11 -> 27         0.14871
      12 -> 30        -0.12494
      12 -> 32         0.51775
      12 -> 33         0.12540

 Excited State  67:      Singlet-A"    16.1346 eV   76.84 nm  f=0.0035  <S**2>=0.000
       7 -> 18         0.18179
       9 -> 25         0.28227
      10 -> 27         0.43621
      10 -> 28        -0.12378
      11 -> 26        -0.26237
      12 -> 31        -0.19390

 Excited State  68:      Singlet-A'    16.2765 eV   76.17 nm  f=0.1102  <S**2>=0.000
       7 -> 13        -0.19569
       7 -> 15         0.51597
       8 -> 17        -0.11002
       9 -> 21         0.15184
       9 -> 22        -0.10919
      11 -> 27         0.19842
      12 -> 33        -0.15331

 Excited State  69:      Singlet-A"    16.2870 eV   76.12 nm  f=0.0197  <S**2>=0.000
       7 -> 14         0.39520
       7 -> 18        -0.36682
      10 -> 27         0.22790
      10 -> 28        -0.12316
      11 -> 29        -0.19312
      12 -> 31        -0.14301

 Excited State  70:      Singlet-A'    16.3385 eV   75.88 nm  f=0.1019  <S**2>=0.000
       7 -> 15        -0.15794
       7 -> 16        -0.14882
       8 -> 16         0.12053
       9 -> 21        -0.10766
       9 -> 26         0.14475
      10 -> 26         0.49378
      11 -> 28         0.13261
      12 -> 32         0.22508
      12 -> 33        -0.16440

 Excited State  71:      Singlet-A"    16.4352 eV   75.44 nm  f=0.0787  <S**2>=0.000
       7 -> 14         0.40106
       7 -> 18         0.10152
       9 -> 23        -0.11490
       9 -> 24        -0.16155
       9 -> 25         0.32486
       9 -> 27         0.21173
      10 -> 27        -0.11841
      12 -> 31         0.21996

 Excited State  72:      Singlet-A"    16.5740 eV   74.81 nm  f=0.0062  <S**2>=0.000
       7 -> 14        -0.25099
       7 -> 18        -0.33911
       7 -> 21        -0.13906
       9 -> 25         0.36004
      10 -> 27        -0.20968
      10 -> 28        -0.17099
      11 -> 29        -0.18812

 Excited State  73:      Singlet-A'    16.5773 eV   74.79 nm  f=0.0344  <S**2>=0.000
       7 -> 16         0.20014
       8 -> 17         0.53417
      10 -> 26         0.16763
      11 -> 28        -0.23313

 Excited State  74:      Singlet-A'    16.6890 eV   74.29 nm  f=0.0931  <S**2>=0.000
       8 -> 16        -0.13569
       8 -> 17         0.15506
       9 -> 22         0.10718
      10 -> 26        -0.19732
      11 -> 28         0.40754
      12 -> 33        -0.40687

 Excited State  75:      Singlet-A'    16.8139 eV   73.74 nm  f=0.1718  <S**2>=0.000
       8 -> 17         0.20676
      10 -> 29        -0.10096
      11 -> 27         0.23023
      11 -> 28         0.33355
      11 -> 30         0.12583
      12 -> 33         0.43792

 Excited State  76:      Singlet-A"    16.9431 eV   73.18 nm  f=0.0423  <S**2>=0.000
       7 -> 18        -0.26935
       9 -> 25         0.12919
      10 -> 27         0.18941
      10 -> 28         0.49801
      10 -> 32         0.11667
      11 -> 29         0.19474

 Excited State  77:      Singlet-A'    16.9862 eV   72.99 nm  f=0.1887  <S**2>=0.000
       7 -> 15         0.12751
       7 -> 16        -0.19439
       8 -> 20         0.12387
       8 -> 23        -0.10371
       9 -> 26         0.55477
      10 -> 26        -0.15644

 Excited State  78:      Singlet-A"    17.0627 eV   72.66 nm  f=0.1232  <S**2>=0.000
       7 -> 18        -0.16162
       8 -> 19        -0.27425
       9 -> 28         0.13759
      10 -> 28        -0.25216
      11 -> 29         0.49286

 Excited State  79:      Singlet-A'    17.1549 eV   72.27 nm  f=0.0780  <S**2>=0.000
       7 -> 16         0.55146
       8 -> 16         0.10980
       8 -> 17        -0.15033
       8 -> 20         0.13205
       9 -> 26         0.21375
      12 -> 38        -0.11462
      12 -> 39         0.10529

 Excited State  80:      Singlet-A"    17.1858 eV   72.14 nm  f=0.0000  <S**2>=0.000
       9 -> 25        -0.16558
       9 -> 27         0.55351
       9 -> 28        -0.16592
       9 -> 32        -0.10743
      12 -> 31        -0.12514
      12 -> 34        -0.10498

 Excited State  81:      Singlet-A"    17.3105 eV   71.62 nm  f=0.0587  <S**2>=0.000
       6 -> 16         0.12385
       8 -> 19         0.52698
       9 -> 24         0.10981

 The electronic state is 1-A'.
 Alpha  occ. eigenvalues --  -14.21376 -10.14791 -10.14777  -1.10037  -0.79237
 Alpha  occ. eigenvalues --   -0.75259  -0.65561  -0.60000  -0.49457  -0.46977
 Alpha  occ. eigenvalues --   -0.45726  -0.36964
 Alpha virt. eigenvalues --    0.09767   0.11545   0.13521   0.16518   0.20053
 Alpha virt. eigenvalues --    0.20539   0.21698   0.23882   0.26652   0.27458
 Alpha virt. eigenvalues --    0.27650   0.29250   0.31133   0.32913   0.34424

 Mulliken charges:
               1
     1  C    0.514448
     2  C    0.514448
     3  N   -0.408967
     4  H   -0.184384
     5  H   -0.123297
     6  H   -0.123297
     7  H   -0.184384
     8  H   -0.004566
 Sum of Mulliken charges =  -0.00000

 Dipole moment (field-independent basis, Debye):
    X=             -1.3542    Y=             -1.1291    Z=              0.0000  Tot=              1.7632
 Quadrupole moment (field-independent basis, Debye-Ang):
   XX=            -17.6448   YY=            -21.1897   ZZ=            -18.5027
   XY=             -2.1679   XZ=              0.0000   YZ=              0.0000

 Normal termination of Gaussian 16 at Mon Mar 21 04:12:40 2022.
