 Gaussian 16, Revision C.01,
 Gaussian 16:  EM64L-G16RevC.01  3-Jul-2019

 ----------------------------------------------------------------------
 #P TD(Nstates=10000) lc-whpbe/Gen SCF(maxcycles=100) Int(Grid=ultrafin
 e)
 ----------------------------------------------------------------------

 ---------------------
 xGDB7_00001_tier4.com
 ---------------------
 Symbolic Z-matrix:
 Charge =  0 Multiplicity = 1

                         Standard orientation:
 ---------------------------------------------------------------------
 Center     Atomic      Atomic             Coordinates (Angstroms)
 Number     Number       Type             X           Y           Z
 ---------------------------------------------------------------------
      1          9           0        0.000000    0.000000    0.688193
      2          9           0        0.000000    0.000000   -0.688193
 ---------------------------------------------------------------------

 SCF Done:  E(RLC-wHPBE) =  -199.254615372     A.U. after   10 cycles

 Excitation energies and oscillator strengths:

 Excited state symmetry could not be determined.
 Excited State   1:      Singlet-?Sym    4.8890 eV  253.60 nm  f=0.0000  <S**2>=0.000
       8 -> 10        -0.30993
       9 -> 10         0.63379
 This state for optimization and/or second-order correction.
 Total Energy, E(TD-HF/TD-DFT) =  -199.074949076
 Copying the excited state density for this state as the 1-particle RhoCI density.

 Excited state symmetry could not be determined.
 Excited State   2:      Singlet-?Sym    4.8890 eV  253.60 nm  f=0.0000  <S**2>=0.000
       8 -> 10         0.63379
       9 -> 10         0.30993

 Excited state symmetry could not be determined.
 Excited State   3:      Singlet-?Sym    8.7554 eV  141.61 nm  f=0.0000  <S**2>=0.000
       6 -> 10         0.67532
       7 -> 10        -0.19719

 Excited state symmetry could not be determined.
 Excited State   4:      Singlet-?Sym    8.7554 eV  141.61 nm  f=0.0000  <S**2>=0.000
       6 -> 10         0.19719
       7 -> 10         0.67532

 Excited state symmetry could not be determined.
 Excited State   5:      Singlet-?Sym   13.1154 eV   94.53 nm  f=0.0000  <S**2>=0.000
       7 -> 11        -0.11142
       8 -> 12        -0.11957
       9 -> 12         0.65912
       9 -> 17        -0.18754

 Excited state symmetry could not be determined.
 Excited State   6:      Singlet-?Sym   13.1154 eV   94.53 nm  f=0.0000  <S**2>=0.000
       6 -> 11        -0.11142
       8 -> 12         0.65912
       8 -> 17        -0.18754
       9 -> 12         0.11957

 Excited state symmetry could not be determined.
 Excited State   7:      Singlet-?Sym   13.4308 eV   92.31 nm  f=0.0380  <S**2>=0.000
       7 -> 12        -0.12920
       8 -> 11         0.27459
       9 -> 11         0.62531

 Excited state symmetry could not be determined.
 Excited State   8:      Singlet-?Sym   13.4308 eV   92.31 nm  f=0.0380  <S**2>=0.000
       6 -> 12        -0.12920
       8 -> 11         0.62531
       9 -> 11        -0.27459

 Excited State   9:      Singlet-SGU   13.4896 eV   91.91 nm  f=0.4054  <S**2>=0.000
       5 -> 10         0.47654
       8 -> 14        -0.36355
       9 -> 13        -0.36355

 Excited state symmetry could not be determined.
 Excited State  10:      Singlet-?Sym   14.2267 eV   87.15 nm  f=0.0000  <S**2>=0.000
       8 -> 14        -0.49693
       9 -> 13         0.49693

 Excited state symmetry could not be determined.
 Excited State  11:      Singlet-?Sym   14.2267 eV   87.15 nm  f=0.0000  <S**2>=0.000
       8 -> 13         0.49693
       9 -> 14         0.49693

 Excited state symmetry could not be determined.
 Excited State  12:      Singlet-?Sym   14.2307 eV   87.12 nm  f=0.0000  <S**2>=0.000
       8 -> 13        -0.49680
       9 -> 14         0.49680

 Excited state symmetry could not be determined.
 Excited State  13:      Singlet-?Sym   15.8022 eV   78.46 nm  f=0.0000  <S**2>=0.000
       7 -> 11        -0.21867
       9 -> 12         0.14750
       9 -> 17         0.65174

 Excited state symmetry could not be determined.
 Excited State  14:      Singlet-?Sym   15.8022 eV   78.46 nm  f=0.0000  <S**2>=0.000
       6 -> 11        -0.21867
       8 -> 12         0.14750
       8 -> 17         0.65174

 Excited state symmetry could not be determined.
 Excited State  15:      Singlet-?Sym   16.1254 eV   76.89 nm  f=0.0000  <S**2>=0.000
       6 -> 13        -0.14735
       7 -> 14         0.14735
       8 -> 16        -0.47679
       9 -> 15         0.47679

 Excited state symmetry could not be determined.
 Excited State  16:      Singlet-?Sym   16.1291 eV   76.87 nm  f=0.0000  <S**2>=0.000
       6 -> 13         0.14221
       7 -> 14         0.14221
       8 -> 16         0.47838
       9 -> 15         0.47838

 Excited state symmetry could not be determined.
 Excited State  17:      Singlet-?Sym   16.1291 eV   76.87 nm  f=0.0000  <S**2>=0.000
       6 -> 14         0.14221
       7 -> 13        -0.14221
       8 -> 15         0.47838
       9 -> 16        -0.47838

 Excited State  18:      Singlet-SGU   16.2478 eV   76.31 nm  f=0.2748  <S**2>=0.000
       5 -> 10         0.49015
       5 -> 11         0.16230
       8 -> 14         0.33342
       9 -> 13         0.33342

 Excited state symmetry could not be determined.
 Excited State  19:      Singlet-?Sym   16.8333 eV   73.65 nm  f=0.0000  <S**2>=0.000
       8 -> 15         0.49560
       9 -> 16         0.49560

 Excited state symmetry could not be determined.
 Excited State  20:      Singlet-?Sym   17.3620 eV   71.41 nm  f=0.1198  <S**2>=0.000
       6 -> 12        -0.18351
       7 -> 12         0.62572
       7 -> 17        -0.22454
       9 -> 11         0.12388

 Excited state symmetry could not be determined.
 Excited State  21:      Singlet-?Sym   17.3620 eV   71.41 nm  f=0.1198  <S**2>=0.000
       6 -> 12         0.62572
       6 -> 17        -0.22454
       7 -> 12         0.18351
       8 -> 11         0.12388

 Excited state symmetry could not be determined.
 Excited State  22:      Singlet-?Sym   17.9138 eV   69.21 nm  f=0.0000  <S**2>=0.000
       7 -> 11         0.64772
       9 -> 12         0.16715
       9 -> 17         0.18154

 Excited state symmetry could not be determined.
 Excited State  23:      Singlet-?Sym   17.9138 eV   69.21 nm  f=0.0000  <S**2>=0.000
       6 -> 11         0.64772
       8 -> 12         0.16715
       8 -> 17         0.18154

 Excited state symmetry could not be determined.
 Excited State  24:      Singlet-?Sym   18.3858 eV   67.43 nm  f=0.0000  <S**2>=0.000
       6 -> 14        -0.47887
       7 -> 13         0.47887
       8 -> 15         0.14220
       9 -> 16        -0.14220

 Excited state symmetry could not be determined.
 Excited State  25:      Singlet-?Sym   18.3858 eV   67.43 nm  f=0.0000  <S**2>=0.000
       6 -> 13         0.47887
       7 -> 14         0.47887
       8 -> 16        -0.14220
       9 -> 15        -0.14220

 Excited state symmetry could not be determined.
 Excited State  26:      Singlet-?Sym   18.4226 eV   67.30 nm  f=0.0000  <S**2>=0.000
       6 -> 13         0.47730
       7 -> 14        -0.47730
       8 -> 16        -0.14749
       9 -> 15         0.14749

 Excited State  27:      Singlet-SGG   18.7200 eV   66.23 nm  f=0.0000  <S**2>=0.000
       5 -> 12         0.45131
       6 -> 14        -0.37438
       7 -> 13        -0.37438

 Excited State  28:      Singlet-SGG   19.3864 eV   63.95 nm  f=0.0000  <S**2>=0.000
       5 -> 12         0.48342
       5 -> 17        -0.22687
       6 -> 14         0.32293
       7 -> 13         0.32293

 Excited State  29:      Singlet-SGU   19.6760 eV   63.01 nm  f=0.0071  <S**2>=0.000
       5 -> 11         0.64169
       6 -> 15         0.18053
       7 -> 16         0.18053

 Excited state symmetry could not be determined.
 Excited State  30:      Singlet-?Sym   19.9563 eV   62.13 nm  f=0.0185  <S**2>=0.000
       5 -> 13         0.68419
       5 -> 14        -0.17410

 Excited state symmetry could not be determined.
 Excited State  31:      Singlet-?Sym   19.9563 eV   62.13 nm  f=0.0185  <S**2>=0.000
       5 -> 13         0.17410
       5 -> 14         0.68419

 Excited state symmetry could not be determined.
 Excited State  32:      Singlet-?Sym   20.0770 eV   61.75 nm  f=0.0571  <S**2>=0.000
       6 -> 17         0.15117
       7 -> 12         0.22177
       7 -> 17         0.64309

 Excited state symmetry could not be determined.
 Excited State  33:      Singlet-?Sym   20.0770 eV   61.75 nm  f=0.0571  <S**2>=0.000
       6 -> 12         0.22177
       6 -> 17         0.64309
       7 -> 17        -0.15117

 Excited state symmetry could not be determined.
 Excited State  34:      Singlet-?Sym   20.2964 eV   61.09 nm  f=0.0000  <S**2>=0.000
       6 -> 16         0.49563
       7 -> 15         0.49563

 Excited state symmetry could not be determined.
 Excited State  35:      Singlet-?Sym   20.2964 eV   61.09 nm  f=0.0000  <S**2>=0.000
       6 -> 15         0.49563
       7 -> 16        -0.49563

 Excited state symmetry could not be determined.
 Excited State  36:      Singlet-?Sym   20.3310 eV   60.98 nm  f=0.0000  <S**2>=0.000
       6 -> 16        -0.49563
       7 -> 15         0.49563

 Excited state symmetry could not be determined.
 Excited State  37:      Singlet-?Sym   20.6627 eV   60.00 nm  f=0.0186  <S**2>=0.000
       5 -> 10         0.11578
       5 -> 11        -0.23002
       6 -> 15         0.45692
       7 -> 16         0.45692

 Excited state symmetry could not be determined.
 Excited State  38:      Singlet-?Sym   21.7619 eV   56.97 nm  f=0.0473  <S**2>=0.000
       8 -> 18         0.67904
       9 -> 18        -0.15248

 Excited state symmetry could not be determined.
 Excited State  39:      Singlet-?Sym   21.7619 eV   56.97 nm  f=0.0473  <S**2>=0.000
       8 -> 18         0.15248
       9 -> 18         0.67904

 Excited State  40:      Singlet-SGG   21.7791 eV   56.93 nm  f=0.0000  <S**2>=0.000
       5 -> 12         0.23008
       5 -> 17         0.65762

 Excited state symmetry could not be determined.
 Excited State  41:      Singlet-?Sym   21.9100 eV   56.59 nm  f=0.0000  <S**2>=0.000
       5 -> 15         0.41101
       5 -> 16         0.57230

 Excited state symmetry could not be determined.
 Excited State  42:      Singlet-?Sym   21.9100 eV   56.59 nm  f=0.0000  <S**2>=0.000
       5 -> 15         0.57230
       5 -> 16        -0.41101

 Excited state symmetry could not be determined.
 Excited State  43:      Singlet-?Sym   22.7390 eV   54.52 nm  f=0.0000  <S**2>=0.000
       8 -> 19         0.13772
       8 -> 20         0.47859
       9 -> 19         0.47859
       9 -> 20        -0.13772

 Excited state symmetry could not be determined.
 Excited State  44:      Singlet-?Sym   22.7390 eV   54.52 nm  f=0.0000  <S**2>=0.000
       8 -> 19         0.47859
       8 -> 20        -0.13772
       9 -> 19        -0.13772
       9 -> 20        -0.47859

 Excited state symmetry could not be determined.
 Excited State  45:      Singlet-?Sym   23.1409 eV   53.58 nm  f=0.0000  <S**2>=0.000
       8 -> 19        -0.20641
       8 -> 20        -0.45326
       9 -> 19         0.45326
       9 -> 20        -0.20641

 Excited state symmetry could not be determined.
 Excited State  46:      Singlet-?Sym   23.1409 eV   53.58 nm  f=0.0000  <S**2>=0.000
       8 -> 19         0.45326
       8 -> 20        -0.20641
       9 -> 19         0.20641
       9 -> 20         0.45326

 Excited State  47:      Singlet-SGG   24.8383 eV   49.92 nm  f=0.0000  <S**2>=0.000
       4 -> 10         0.68280

 Excited state symmetry could not be determined.
 Excited State  48:      Singlet-?Sym   25.6243 eV   48.39 nm  f=0.0000  <S**2>=0.000
       7 -> 18         0.69850

 Excited state symmetry could not be determined.
 Excited State  49:      Singlet-?Sym   25.6243 eV   48.39 nm  f=0.0000  <S**2>=0.000
       6 -> 18         0.69850

 Excited state symmetry could not be determined.
 Excited State  50:      Singlet-?Sym   26.4058 eV   46.95 nm  f=0.0000  <S**2>=0.000
       6 -> 19        -0.31007
       6 -> 20         0.36245
       7 -> 19         0.36245
       7 -> 20         0.31007
       8 -> 24         0.11398
       9 -> 25         0.11398

 Excited state symmetry could not be determined.
 Excited State  51:      Singlet-?Sym   26.4058 eV   46.95 nm  f=0.0000  <S**2>=0.000
       6 -> 19         0.36245
       6 -> 20         0.31007
       7 -> 19         0.31007
       7 -> 20        -0.36245
       8 -> 25         0.11398
       9 -> 24        -0.11398

 Excited state symmetry could not be determined.
 Excited State  52:      Singlet-?Sym   26.9062 eV   46.08 nm  f=0.0000  <S**2>=0.000
       8 -> 21        -0.49612
       9 -> 22         0.49612

 Excited state symmetry could not be determined.
 Excited State  53:      Singlet-?Sym   26.9062 eV   46.08 nm  f=0.0000  <S**2>=0.000
       8 -> 22         0.49612
       9 -> 21         0.49612

 Excited state symmetry could not be determined.
 Excited State  54:      Singlet-?Sym   27.0049 eV   45.91 nm  f=0.0000  <S**2>=0.000
       8 -> 22        -0.49671
       9 -> 21         0.49671

 Excited State  55:      Singlet-SGU   27.2691 eV   45.47 nm  f=0.3060  <S**2>=0.000
       5 -> 18         0.61502
       8 -> 21         0.23451
       9 -> 22         0.23451

 Excited state symmetry could not be determined.
 Excited State  56:      Singlet-?Sym   27.5560 eV   44.99 nm  f=0.5502  <S**2>=0.000
       6 -> 19         0.45124
       6 -> 20        -0.19277
       7 -> 19         0.19276
       7 -> 20         0.45125

 Excited state symmetry could not be determined.
 Excited State  57:      Singlet-?Sym   27.5560 eV   44.99 nm  f=0.5502  <S**2>=0.000
       6 -> 19         0.19276
       6 -> 20         0.45125
       7 -> 19        -0.45124
       7 -> 20         0.19277

 Excited state symmetry could not be determined.
 Excited State  58:      Singlet-?Sym   28.5728 eV   43.39 nm  f=0.0000  <S**2>=0.000
       5 -> 19         0.70606

 Excited state symmetry could not be determined.
 Excited State  59:      Singlet-?Sym   28.5728 eV   43.39 nm  f=0.0000  <S**2>=0.000
       5 -> 20         0.70606

 Excited state symmetry could not be determined.
 Excited State  60:      Singlet-?Sym   28.7001 eV   43.20 nm  f=0.9302  <S**2>=0.000
       4 -> 12        -0.11943
       5 -> 10        -0.12008
       5 -> 18        -0.33180
       8 -> 21         0.41320
       9 -> 22         0.41320

 Excited state symmetry could not be determined.
 Excited State  61:      Singlet-?Sym   29.2551 eV   42.38 nm  f=0.0380  <S**2>=0.000
       7 -> 26        -0.12114
       8 -> 23        -0.10029
       9 -> 23         0.66714

 Excited state symmetry could not be determined.
 Excited State  62:      Singlet-?Sym   29.2551 eV   42.38 nm  f=0.0380  <S**2>=0.000
       6 -> 26        -0.12114
       8 -> 23         0.66714
       9 -> 23         0.10029

 Excited state symmetry could not be determined.
 Excited State  63:      Singlet-?Sym   29.4769 eV   42.06 nm  f=0.0000  <S**2>=0.000
       6 -> 19         0.14393
       7 -> 20        -0.14394
       8 -> 24        -0.13410
       8 -> 25        -0.45771
       9 -> 24         0.45776
       9 -> 25        -0.13409

 Excited state symmetry could not be determined.
 Excited State  64:      Singlet-?Sym   29.4769 eV   42.06 nm  f=0.0000  <S**2>=0.000
       6 -> 20        -0.14394
       7 -> 19        -0.14393
       8 -> 24         0.45776
       8 -> 25        -0.13409
       9 -> 24         0.13410
       9 -> 25         0.45771

 Excited state symmetry could not be determined.
 Excited State  65:      Singlet-?Sym   29.8085 eV   41.59 nm  f=0.3403  <S**2>=0.000
       8 -> 24        -0.48040
       9 -> 23         0.12747
       9 -> 25         0.48045

 Excited state symmetry could not be determined.
 Excited State  66:      Singlet-?Sym   29.8085 eV   41.59 nm  f=0.3403  <S**2>=0.000
       8 -> 23        -0.12747
       8 -> 25         0.48045
       9 -> 24         0.48040

 Excited state symmetry could not be determined.
 Excited State  67:      Singlet-?Sym   30.2884 eV   40.93 nm  f=0.0000  <S**2>=0.000
       6 -> 21        -0.41119
       7 -> 22         0.41119
       8 -> 27        -0.28250
       9 -> 28         0.28250

 Excited state symmetry could not be determined.
 Excited State  68:      Singlet-?Sym   30.2884 eV   40.93 nm  f=0.0000  <S**2>=0.000
       6 -> 22         0.41119
       7 -> 21         0.41119
       8 -> 28         0.28251
       9 -> 27         0.28251

 Excited state symmetry could not be determined.
 Excited State  69:      Singlet-?Sym   30.4465 eV   40.72 nm  f=0.0000  <S**2>=0.000
       6 -> 22        -0.40959
       7 -> 21         0.40959
       8 -> 28        -0.28551
       9 -> 27         0.28551

 Excited state symmetry could not be determined.
 Excited State  70:      Singlet-?Sym   30.9911 eV   40.01 nm  f=0.0000  <S**2>=0.000
       6 -> 23        -0.30888
       8 -> 26         0.63086

 Excited state symmetry could not be determined.
 Excited State  71:      Singlet-?Sym   30.9911 eV   40.01 nm  f=0.0000  <S**2>=0.000
       7 -> 23        -0.30888
       9 -> 26         0.63086

 Excited State  72:      Singlet-SGG   31.3286 eV   39.58 nm  f=0.0000  <S**2>=0.000
       4 -> 10         0.13007
       4 -> 11         0.41467
       6 -> 21         0.36135
       7 -> 22         0.36135
       8 -> 27         0.13833
       9 -> 28         0.13833

 Excited State  73:      Singlet-SGU   31.6854 eV   39.13 nm  f=0.0382  <S**2>=0.000
       3 -> 10         0.12091
       4 -> 12         0.64684
       4 -> 17        -0.21542

 Excited State  74:      Singlet-SGG   32.0901 eV   38.64 nm  f=0.0000  <S**2>=0.000
       4 -> 11         0.55075
       6 -> 21        -0.23414
       7 -> 22        -0.23414
       8 -> 27        -0.18957
       9 -> 28        -0.18957

 Excited state symmetry could not be determined.
 Excited State  75:      Singlet-?Sym   32.1247 eV   38.59 nm  f=0.0000  <S**2>=0.000
       6 -> 21         0.28299
       7 -> 22        -0.28299
       8 -> 27        -0.41045
       9 -> 28         0.41045

 Excited state symmetry could not be determined.
 Excited State  76:      Singlet-?Sym   32.1247 eV   38.59 nm  f=0.0000  <S**2>=0.000
       6 -> 22        -0.28299
       7 -> 21        -0.28299
       8 -> 28         0.41045
       9 -> 27         0.41045

 Excited state symmetry could not be determined.
 Excited State  77:      Singlet-?Sym   32.1346 eV   38.58 nm  f=0.0000  <S**2>=0.000
       6 -> 22         0.28555
       7 -> 21        -0.28555
       8 -> 28        -0.40849
       9 -> 27         0.40849

 Excited State  78:      Singlet-SGU   32.3282 eV   38.35 nm  f=0.0552  <S**2>=0.000
       3 -> 10         0.65359
       4 -> 12        -0.12045
       6 -> 27        -0.12533
       7 -> 28        -0.12533

 Excited state symmetry could not be determined.
 Excited State  79:      Singlet-?Sym   32.5018 eV   38.15 nm  f=0.0000  <S**2>=0.000
       4 -> 13         0.68578
       6 -> 24        -0.10356
       7 -> 25         0.10356

 Excited state symmetry could not be determined.
 Excited State  80:      Singlet-?Sym   32.5018 eV   38.15 nm  f=0.0000  <S**2>=0.000
       4 -> 14         0.68578
       6 -> 25        -0.10356
       7 -> 24        -0.10356

 Excited state symmetry could not be determined.
 Excited State  81:      Singlet-?Sym   33.0108 eV   37.56 nm  f=0.3820  <S**2>=0.000
       4 -> 15        -0.13698
       4 -> 16        -0.17954
       5 -> 21         0.39862
       5 -> 22         0.52249

 Excited state symmetry could not be determined.
 Excited State  82:      Singlet-?Sym   33.0108 eV   37.56 nm  f=0.3820  <S**2>=0.000
       4 -> 15        -0.17954
       4 -> 16         0.13698
       5 -> 21         0.52249
       5 -> 22        -0.39862

 Excited state symmetry could not be determined.
 Excited State  83:      Singlet-?Sym   33.1118 eV   37.44 nm  f=0.0000  <S**2>=0.000
       4 -> 11         0.11149
       6 -> 21        -0.23647
       7 -> 22        -0.23647
       8 -> 27         0.42532
       9 -> 28         0.42532

 Excited state symmetry could not be determined.
 Excited State  84:      Singlet-?Sym   33.1889 eV   37.36 nm  f=0.0000  <S**2>=0.000
       6 -> 24        -0.21548
       6 -> 25        -0.44896
       7 -> 24         0.44898
       7 -> 25        -0.21547

 Excited state symmetry could not be determined.
 Excited State  85:      Singlet-?Sym   33.1889 eV   37.36 nm  f=0.0000  <S**2>=0.000
       6 -> 24         0.44898
       6 -> 25        -0.21547
       7 -> 24         0.21548
       7 -> 25         0.44896

 Excited state symmetry could not be determined.
 Excited State  86:      Singlet-?Sym   33.5952 eV   36.91 nm  f=0.0000  <S**2>=0.000
       4 -> 13        -0.12122
       6 -> 24        -0.40391
       6 -> 25        -0.26939
       7 -> 24        -0.26938
       7 -> 25         0.40392

 Excited state symmetry could not be determined.
 Excited State  87:      Singlet-?Sym   33.5952 eV   36.91 nm  f=0.0000  <S**2>=0.000
       4 -> 14         0.12122
       6 -> 24        -0.26938
       6 -> 25         0.40392
       7 -> 24         0.40391
       7 -> 25         0.26939

 Excited state symmetry could not be determined.
 Excited State  88:      Singlet-?Sym   33.9755 eV   36.49 nm  f=0.0000  <S**2>=0.000
       7 -> 23         0.63033
       9 -> 26         0.31137

 Excited state symmetry could not be determined.
 Excited State  89:      Singlet-?Sym   33.9755 eV   36.49 nm  f=0.0000  <S**2>=0.000
       6 -> 23         0.63033
       8 -> 26         0.31137

 Excited State  90:      Singlet-SGU   33.9883 eV   36.48 nm  f=0.0387  <S**2>=0.000
       4 -> 12         0.18373
       4 -> 17         0.61082
       5 -> 23        -0.27884

 Excited state symmetry could not be determined.
 Excited State  91:      Singlet-?Sym   34.6395 eV   35.79 nm  f=0.0216  <S**2>=0.000
       4 -> 16         0.65859
       5 -> 22         0.20968

 Excited state symmetry could not be determined.
 Excited State  92:      Singlet-?Sym   34.6395 eV   35.79 nm  f=0.0216  <S**2>=0.000
       4 -> 15         0.65859
       5 -> 21         0.20968

 Excited state symmetry could not be determined.
 Excited State  93:      Singlet-?Sym   34.8664 eV   35.56 nm  f=0.0000  <S**2>=0.000
       5 -> 24         0.69544

 Excited state symmetry could not be determined.
 Excited State  94:      Singlet-?Sym   34.8664 eV   35.56 nm  f=0.0000  <S**2>=0.000
       5 -> 25         0.69543

 Excited State  95:      Singlet-SGU   35.1750 eV   35.25 nm  f=0.0166  <S**2>=0.000
       4 -> 17         0.24892
       5 -> 23         0.58963
       6 -> 27        -0.19519
       7 -> 28        -0.19519

 Excited state symmetry could not be determined.
 Excited State  96:      Singlet-?Sym   35.5778 eV   34.85 nm  f=0.0000  <S**2>=0.000
       5 -> 25         0.10663
       6 -> 27        -0.48888
       7 -> 28         0.48888

 Excited state symmetry could not be determined.
 Excited State  97:      Singlet-?Sym   35.5778 eV   34.85 nm  f=0.0000  <S**2>=0.000
       5 -> 24        -0.10663
       6 -> 28         0.48888
       7 -> 27         0.48888

 Excited state symmetry could not be determined.
 Excited State  98:      Singlet-?Sym   35.5798 eV   34.85 nm  f=0.0000  <S**2>=0.000
       6 -> 28        -0.49454
       7 -> 27         0.49454

 Excited state symmetry could not be determined.
 Excited State  99:      Singlet-?Sym   35.8251 eV   34.61 nm  f=0.0520  <S**2>=0.000
       6 -> 26         0.60908
       7 -> 26        -0.31791
       8 -> 23         0.10393

 Excited state symmetry could not be determined.

 The electronic state is 1-SGG.
 Alpha  occ. eigenvalues --  -24.60517 -24.60491  -1.48675  -1.20578  -0.74716
 Alpha  occ. eigenvalues --   -0.68552  -0.68552  -0.54074  -0.54074
 Alpha virt. eigenvalues --   -0.03888   0.15715   0.18702   0.21948   0.21948
 Alpha virt. eigenvalues --    0.26857   0.26857   0.28415   0.48880   0.59058
 Alpha virt. eigenvalues --    0.59058   0.74473   0.74473   0.80155   0.81167

 Mulliken charges:
               1
     1  F    0.000000
     2  F    0.000000
 Sum of Mulliken charges =   0.00000

 Dipole moment (field-independent basis, Debye):
    X=              0.0000    Y=             -0.0000    Z=             -0.0000  Tot=              0.0000
 Quadrupole moment (field-independent basis, Debye-Ang):
   XX=             -9.8198   YY=             -9.8198   ZZ=             -9.0202
   XY=              0.0000   XZ=              0.0000   YZ=              0.0000

 Normal termination of Gaussian 16 at Mon Mar 21 20:16:51 2022.
