 Gaussian 16, Revision C.01,
 Gaussian 16:  EM64L-G16RevC.01  3-Jul-2019

 ----------------------------------------------------------------------
 #P TD(Nstates=10000) lc-whpbe/Gen SCF(maxcycles=100) Int(Grid=ultrafin
 e)
 ----------------------------------------------------------------------

 ---------------------
 xGDB7_00001_tier4.com
 ---------------------
 Symbolic Z-matrix:
 Charge =  0 Multiplicity = 1

                         Standard orientation:
 ---------------------------------------------------------------------
 Center     Atomic      Atomic             Coordinates (Angstroms)
 Number     Number       Type             X           Y           Z
 ---------------------------------------------------------------------
      1          6           0       -0.049078    0.702042   -0.000000
      2          7           0       -0.049078   -0.754243    0.000000
      3          1           0        0.946109    1.166603   -0.000000
      4          1           0       -0.587574    1.062597    0.877770
      5          1           0       -0.587574    1.062597   -0.877770
      6          1           0        0.433525   -1.112175    0.812504
      7          1           0        0.433525   -1.112175   -0.812504
 ---------------------------------------------------------------------

 SCF Done:  E(RLC-wHPBE) =  -95.7419037986     A.U. after   13 cycles

 Excitation energies and oscillator strengths:

 Excited State   1:      Singlet-A'     6.7788 eV  182.90 nm  f=0.0114  <S**2>=0.000
       9 -> 10         0.62293
       9 -> 11         0.31230
 This state for optimization and/or second-order correction.
 Total Energy, E(TD-HF/TD-DFT) =  -95.4927856726
 Copying the excited state density for this state as the 1-particle RhoCI density.

 Excited State   2:      Singlet-A'     8.2260 eV  150.72 nm  f=0.0429  <S**2>=0.000
       9 -> 10        -0.30155
       9 -> 11         0.61552

 Excited State   3:      Singlet-A"     8.5686 eV  144.70 nm  f=0.0085  <S**2>=0.000
       9 -> 12         0.68038
       9 -> 17        -0.10427

 Excited State   4:      Singlet-A'     9.4304 eV  131.47 nm  f=0.0845  <S**2>=0.000
       9 -> 13         0.66899
       9 -> 15        -0.16201

 Excited State   5:      Singlet-A"     9.7918 eV  126.62 nm  f=0.0001  <S**2>=0.000
       9 -> 14         0.66930
       9 -> 17        -0.15288

 Excited State   6:      Singlet-A'    10.2930 eV  120.46 nm  f=0.0243  <S**2>=0.000
       9 -> 13         0.15266
       9 -> 15         0.63807
       9 -> 18         0.15955
       9 -> 19         0.11756

 Excited State   7:      Singlet-A"    10.3970 eV  119.25 nm  f=0.0222  <S**2>=0.000
       8 -> 10         0.68311

 Excited State   8:      Singlet-A'    10.4075 eV  119.13 nm  f=0.0161  <S**2>=0.000
       9 -> 15         0.11320
       9 -> 16         0.64840
       9 -> 18        -0.12524
       9 -> 19        -0.12529

 Excited State   9:      Singlet-A"    11.1105 eV  111.59 nm  f=0.0015  <S**2>=0.000
       9 -> 12         0.13083
       9 -> 14         0.13695
       9 -> 17         0.64681
       9 -> 20         0.10289

 Excited State  10:      Singlet-A"    11.4827 eV  107.97 nm  f=0.1108  <S**2>=0.000
       5 -> 10         0.11793
       8 -> 11         0.66619
       8 -> 15        -0.10983

 Excited State  11:      Singlet-A'    11.4909 eV  107.90 nm  f=0.0835  <S**2>=0.000
       7 -> 10         0.56985
       9 -> 16         0.13083
       9 -> 18         0.18563
       9 -> 19         0.26076

 Excited State  12:      Singlet-A'    11.8626 eV  104.52 nm  f=0.0125  <S**2>=0.000
       7 -> 10        -0.36626
       9 -> 15        -0.10842
       9 -> 16         0.12980
       9 -> 18         0.19820
       9 -> 19         0.47277
       9 -> 21        -0.13311

 Excited State  13:      Singlet-A"    12.0045 eV  103.28 nm  f=0.0105  <S**2>=0.000
       9 -> 17        -0.10136
       9 -> 20         0.67164

 Excited State  14:      Singlet-A'    12.0733 eV  102.69 nm  f=0.0201  <S**2>=0.000
       6 -> 10        -0.18576
       8 -> 12        -0.16039
       9 -> 13        -0.10621
       9 -> 18         0.54322
       9 -> 19        -0.26337

 Excited State  15:      Singlet-A'    12.4621 eV   99.49 nm  f=0.2704  <S**2>=0.000
       6 -> 10         0.22282
       7 -> 11        -0.32780
       8 -> 12         0.50852
       8 -> 14         0.13493
       9 -> 18         0.11205
       9 -> 19        -0.13692

 Excited State  16:      Singlet-A'    12.5882 eV   98.49 nm  f=0.0329  <S**2>=0.000
       6 -> 10        -0.41297
       7 -> 11         0.33440
       8 -> 12         0.42448

 Excited State  17:      Singlet-A"    12.6800 eV   97.78 nm  f=0.0465  <S**2>=0.000
       8 -> 13         0.67945

 Excited State  18:      Singlet-A'    12.9013 eV   96.10 nm  f=0.0275  <S**2>=0.000
       6 -> 10         0.39789
       7 -> 11         0.44973
       8 -> 14         0.18053
       9 -> 21         0.20043

 Excited State  19:      Singlet-A'    13.1871 eV   94.02 nm  f=0.1075  <S**2>=0.000
       6 -> 10        -0.17626
       7 -> 11        -0.13760
       8 -> 14         0.41023
       8 -> 17        -0.10370
       9 -> 18        -0.14463
       9 -> 19         0.18468
       9 -> 21         0.42414

 Excited State  20:      Singlet-A"    13.3791 eV   92.67 nm  f=0.0112  <S**2>=0.000
       7 -> 12         0.54320
       8 -> 15        -0.20993
       8 -> 16         0.12081
       9 -> 22         0.29032

 Excited State  21:      Singlet-A'    13.3944 eV   92.56 nm  f=0.2052  <S**2>=0.000
       6 -> 11        -0.13163
       8 -> 14         0.45095
       8 -> 17        -0.15941
       9 -> 21        -0.43224

 Excited State  22:      Singlet-A"    13.4965 eV   91.86 nm  f=0.0486  <S**2>=0.000
       5 -> 10         0.26119
       5 -> 11         0.24466
       8 -> 15         0.18992
       8 -> 16         0.51783
       8 -> 18        -0.14485

 Excited State  23:      Singlet-A"    13.5673 eV   91.38 nm  f=0.0070  <S**2>=0.000
       7 -> 12         0.34539
       7 -> 14         0.21407
       8 -> 15         0.42150
       8 -> 16        -0.31059

 Excited State  24:      Singlet-A'    13.7328 eV   90.28 nm  f=0.0714  <S**2>=0.000
       6 -> 10        -0.12342
       6 -> 11         0.59925
       7 -> 13         0.15621
       7 -> 15        -0.15603
       9 -> 23        -0.14832

 Excited State  25:      Singlet-A"    13.7531 eV   90.15 nm  f=0.1899  <S**2>=0.000
       7 -> 12        -0.19738
       8 -> 15         0.25695
       9 -> 17         0.10085
       9 -> 22         0.59004

 Excited State  26:      Singlet-A'    13.9723 eV   88.74 nm  f=0.0196  <S**2>=0.000
       6 -> 11        -0.19883
       7 -> 13         0.60908
       7 -> 15        -0.10350
       7 -> 16         0.10994
       8 -> 17        -0.11917
       9 -> 23        -0.12994

 Excited State  27:      Singlet-A"    14.1348 eV   87.72 nm  f=0.0325  <S**2>=0.000
       6 -> 12         0.24615
       7 -> 14         0.59255
       8 -> 15        -0.22011

 Excited State  28:      Singlet-A'    14.1704 eV   87.49 nm  f=0.2515  <S**2>=0.000
       7 -> 13         0.18528
       7 -> 16        -0.10370
       9 -> 23         0.62578

 Excited State  29:      Singlet-A"    14.2904 eV   86.76 nm  f=0.0586  <S**2>=0.000
       5 -> 10         0.55819
       5 -> 11         0.10283
       6 -> 12        -0.10946
       8 -> 11        -0.15638
       8 -> 15        -0.23254
       8 -> 16        -0.23688

 Excited State  30:      Singlet-A'    14.5214 eV   85.38 nm  f=0.0193  <S**2>=0.000
       5 -> 12        -0.13427
       6 -> 13        -0.36684
       7 -> 15        -0.22696
       8 -> 17         0.43006
       9 -> 21        -0.11761
       9 -> 24        -0.20885

 Excited State  31:      Singlet-A"    14.5294 eV   85.33 nm  f=0.0924  <S**2>=0.000
       5 -> 10         0.10749
       6 -> 12         0.59973
       7 -> 14        -0.19933
       7 -> 17         0.15795
       8 -> 19         0.12297

 Excited State  32:      Singlet-A'    14.7595 eV   84.00 nm  f=0.0298  <S**2>=0.000
       6 -> 13        -0.16332
       7 -> 16         0.13921
       8 -> 17         0.17319
       9 -> 21         0.10510
       9 -> 24         0.57865
       9 -> 30        -0.10916
       9 -> 32         0.11850

 Excited State  33:      Singlet-A'    14.9994 eV   82.66 nm  f=0.1088  <S**2>=0.000
       6 -> 11        -0.12658
       6 -> 13         0.46603
       7 -> 15        -0.39881
       8 -> 17         0.20941

 Excited State  34:      Singlet-A"    15.0649 eV   82.30 nm  f=0.0000  <S**2>=0.000
       5 -> 13         0.15262
       6 -> 14         0.50636
       6 -> 17        -0.12450
       8 -> 18         0.36979
       8 -> 19        -0.10607

 Excited State  35:      Singlet-A'    15.0934 eV   82.14 nm  f=0.1360  <S**2>=0.000
       7 -> 13        -0.11296
       7 -> 15        -0.13722
       7 -> 16         0.59155
       7 -> 18        -0.13056
       9 -> 23         0.10917
       9 -> 24        -0.14479
       9 -> 25        -0.13492

 Excited State  36:      Singlet-A"    15.1496 eV   81.84 nm  f=0.0004  <S**2>=0.000
       5 -> 11         0.21770
       5 -> 13         0.11219
       6 -> 12        -0.12133
       6 -> 14        -0.28997
       8 -> 18         0.45882
       8 -> 19         0.25263

 Excited State  37:      Singlet-A'    15.2154 eV   81.49 nm  f=0.0736  <S**2>=0.000
       6 -> 13         0.17037
       6 -> 16         0.13513
       7 -> 13         0.14006
       7 -> 15         0.35564
       8 -> 14         0.11061
       8 -> 17         0.32327
       8 -> 20        -0.19058
       9 -> 24        -0.15867
       9 -> 25        -0.26876

 Excited State  38:      Singlet-A"    15.3845 eV   80.59 nm  f=0.1887  <S**2>=0.000
       5 -> 10        -0.13995
       5 -> 11         0.32478
       6 -> 12        -0.10947
       6 -> 14         0.27403
       7 -> 14         0.10416
       7 -> 17         0.18309
       8 -> 18        -0.22926
       8 -> 19         0.32671
       8 -> 21        -0.10025

 Excited State  39:      Singlet-A'    15.5340 eV   79.81 nm  f=0.0139  <S**2>=0.000
       5 -> 12         0.13620
       6 -> 13         0.15481
       7 -> 15         0.17043
       7 -> 16         0.18446
       8 -> 17         0.16962
       9 -> 25         0.51243
       9 -> 30        -0.15162

 Excited State  40:      Singlet-A"    15.7694 eV   78.62 nm  f=0.0183  <S**2>=0.000
       5 -> 10        -0.18684
       5 -> 11         0.42746
       7 -> 14        -0.10836
       7 -> 17        -0.38340
       8 -> 15        -0.14377
       8 -> 19        -0.21703

 Excited State  41:      Singlet-A'    15.8016 eV   78.46 nm  f=0.2260  <S**2>=0.000
       7 -> 19        -0.11470
       8 -> 17         0.11671
       8 -> 20         0.60842
       9 -> 25        -0.14954

 Excited State  42:      Singlet-A"    15.8311 eV   78.32 nm  f=0.0796  <S**2>=0.000
       5 -> 11        -0.15212
       7 -> 17        -0.26235
       8 -> 19         0.23120
       9 -> 26         0.40498
       9 -> 27         0.22120
       9 -> 28         0.28000
       9 -> 31         0.11034

 Excited State  43:      Singlet-A'    15.9558 eV   77.70 nm  f=0.0146  <S**2>=0.000
       5 -> 12        -0.31171
       6 -> 15         0.46506
       6 -> 16         0.14731
       7 -> 18        -0.18757
       7 -> 19        -0.16999
       9 -> 25         0.13522

 Excited State  44:      Singlet-A"    16.0086 eV   77.45 nm  f=0.0798  <S**2>=0.000
       6 -> 14        -0.13579
       7 -> 17         0.41874
       7 -> 20        -0.15059
       8 -> 19        -0.29772
       9 -> 26         0.30765
       9 -> 28         0.18062

 Excited State  45:      Singlet-A'    16.1031 eV   76.99 nm  f=0.1793  <S**2>=0.000
       5 -> 12        -0.28611
       6 -> 15        -0.32061
       6 -> 16         0.44032
       8 -> 20         0.12480
       9 -> 30        -0.21627

 Excited State  46:      Singlet-A"    16.2068 eV   76.50 nm  f=0.0189  <S**2>=0.000
       6 -> 17         0.17788
       7 -> 20        -0.11798
       9 -> 26        -0.40067
       9 -> 27         0.19155
       9 -> 28         0.43224
       9 -> 31         0.16834

 Excited State  47:      Singlet-A'    16.3524 eV   75.82 nm  f=0.0489  <S**2>=0.000
       6 -> 15         0.23103
       7 -> 16         0.11318
       7 -> 18         0.58649
       9 -> 29        -0.16135
       9 -> 30        -0.11067

 Excited State  48:      Singlet-A"    16.4386 eV   75.42 nm  f=0.0151  <S**2>=0.000
       5 -> 13         0.42254
       5 -> 15        -0.22120
       7 -> 20        -0.30974
       8 -> 18        -0.14341
       8 -> 21        -0.14887
       8 -> 23         0.23621
       9 -> 27        -0.15785

 Excited State  49:      Singlet-A'    16.4928 eV   75.17 nm  f=0.0026  <S**2>=0.000
       5 -> 12         0.22025
       5 -> 14        -0.23516
       6 -> 16         0.34367
       7 -> 15        -0.10802
       7 -> 19        -0.24132
       8 -> 22        -0.11641
       9 -> 29        -0.10763
       9 -> 30         0.31543

 Excited State  50:      Singlet-A"    16.5364 eV   74.98 nm  f=0.0155  <S**2>=0.000
       5 -> 13         0.12329
       6 -> 17        -0.10860
       9 -> 27         0.57507
       9 -> 28        -0.29127

 Excited State  51:      Singlet-A'    16.5593 eV   74.87 nm  f=0.0242  <S**2>=0.000
       5 -> 12        -0.28547
       6 -> 15        -0.11777
       6 -> 16        -0.14453
       6 -> 18        -0.16612
       7 -> 18         0.18143
       7 -> 19        -0.15367
       9 -> 29         0.37472
       9 -> 30         0.30172

 Excited State  52:      Singlet-A"    16.7113 eV   74.19 nm  f=0.0023  <S**2>=0.000
       5 -> 13        -0.22142
       6 -> 17         0.51584
       7 -> 20        -0.21100
       8 -> 21        -0.14483
       9 -> 26         0.15644
       9 -> 28        -0.14053

 Excited State  53:      Singlet-A'    16.7585 eV   73.98 nm  f=0.1795  <S**2>=0.000
       5 -> 12        -0.12568
       5 -> 14         0.18832
       6 -> 16         0.10136
       6 -> 18         0.15625
       7 -> 15         0.11791
       7 -> 16         0.10002
       7 -> 19         0.34312
       9 -> 29        -0.18850
       9 -> 30         0.39362

 Excited State  54:      Singlet-A'    16.8558 eV   73.56 nm  f=0.0910  <S**2>=0.000
       5 -> 12         0.27374
       5 -> 14         0.21983
       6 -> 15         0.12095
       6 -> 16         0.20932
       7 -> 19         0.14977
       8 -> 22         0.16944
       9 -> 29         0.42802

 Excited State  55:      Singlet-A"    16.8839 eV   73.43 nm  f=0.0116  <S**2>=0.000
       5 -> 13         0.30460
       6 -> 17         0.32717
       7 -> 20         0.32002
       8 -> 21         0.33590

 Excited State  56:      Singlet-A'    16.9859 eV   72.99 nm  f=0.1666  <S**2>=0.000
       5 -> 14         0.39648
       5 -> 17        -0.14066
       6 -> 15        -0.11189
       6 -> 18        -0.14466
       6 -> 19        -0.12107
       7 -> 19        -0.31714
       8 -> 22         0.23532
       9 -> 29        -0.20593
       9 -> 32        -0.13752

 Excited State  57:      Singlet-A"    17.0679 eV   72.64 nm  f=0.1628  <S**2>=0.000
       5 -> 16        -0.19775
       7 -> 20        -0.38619
       8 -> 19         0.17022
       8 -> 21         0.43790
       9 -> 31        -0.13468

 Excited State  58:      Singlet-A'    17.3552 eV   71.44 nm  f=0.0158  <S**2>=0.000
       5 -> 14        -0.13471
       5 -> 17        -0.11468
       6 -> 15        -0.11106
       6 -> 18         0.51652
       6 -> 19        -0.10520
       7 -> 19        -0.19223
       7 -> 23        -0.11376
       8 -> 22         0.25909

 Excited State  59:      Singlet-A"    17.3682 eV   71.39 nm  f=0.0293  <S**2>=0.000
       5 -> 13        -0.25315
       5 -> 15        -0.25991
       5 -> 16        -0.18005
       7 -> 20         0.10131
       8 -> 18         0.13451
       8 -> 19        -0.10820
       8 -> 23         0.49212
       8 -> 25        -0.10940

 Excited State  60:      Singlet-A'    17.5884 eV   70.49 nm  f=0.0308  <S**2>=0.000
       5 -> 14        -0.34427
       6 -> 18        -0.22823
       7 -> 19         0.14378
       7 -> 21         0.18830
       8 -> 22         0.45679

 Excited State  61:      Singlet-A"    17.6151 eV   70.39 nm  f=0.0017  <S**2>=0.000
       5 -> 15        -0.35173
       5 -> 16        -0.15373
       5 -> 18        -0.12526
       6 -> 20         0.37981
       8 -> 19         0.10607
       8 -> 23        -0.24209
       9 -> 31         0.27646

 Excited State  62:      Singlet-A'    17.6846 eV   70.11 nm  f=0.1329  <S**2>=0.000
       6 -> 16         0.12149
       6 -> 19         0.56324
       7 -> 19        -0.10806
       7 -> 21        -0.18619
       8 -> 22         0.16295
       9 -> 33         0.10638

 Excited State  63:      Singlet-A"    17.7415 eV   69.88 nm  f=0.0354  <S**2>=0.000
       5 -> 15         0.19149
       5 -> 16         0.37371
       6 -> 20         0.34388
       8 -> 21         0.14484
       8 -> 23         0.24231
       8 -> 25         0.14467
       9 -> 31         0.16764

 Excited State  64:      Singlet-A'    17.8464 eV   69.47 nm  f=0.0462  <S**2>=0.000
       6 -> 18        -0.16032
       8 -> 22         0.10201
       9 -> 25         0.15602
       9 -> 30         0.15182
       9 -> 32         0.54429
       9 -> 33        -0.24004

 Excited State  65:      Singlet-A"    17.9531 eV   69.06 nm  f=0.1519  <S**2>=0.000
       5 -> 15        -0.20187
       5 -> 16         0.30016
       5 -> 18        -0.20270
       8 -> 21         0.17469
       8 -> 24         0.41685
       9 -> 28         0.11820
       9 -> 31        -0.24050

 Excited State  66:      Singlet-A"    18.0193 eV   68.81 nm  f=0.0026  <S**2>=0.000
       5 -> 15         0.25465
       5 -> 16        -0.18964
       8 -> 19        -0.11753
       8 -> 21        -0.10888
       8 -> 24         0.51965
       9 -> 28        -0.10733
       9 -> 31         0.21101

 Excited State  67:      Singlet-A"    18.0895 eV   68.54 nm  f=0.0203  <S**2>=0.000
       5 -> 15        -0.10952
       5 -> 16         0.19921
       6 -> 20        -0.39358
       7 -> 22         0.15189
       9 -> 28        -0.15154
       9 -> 31         0.44590

 Excited State  68:      Singlet-A'    18.3455 eV   67.58 nm  f=0.1578  <S**2>=0.000
       4 -> 10        -0.12357
       5 -> 17        -0.25100
       6 -> 19         0.15848
       6 -> 21        -0.14575
       7 -> 21         0.51111
       8 -> 22        -0.15357
       9 -> 34        -0.15910

 Excited State  69:      Singlet-A"    18.4965 eV   67.03 nm  f=0.0405  <S**2>=0.000
       5 -> 15         0.18614
       5 -> 18        -0.18529
       6 -> 20         0.14748
       6 -> 22        -0.11360
       7 -> 22         0.53040
       8 -> 25        -0.22762

 Excited State  70:      Singlet-A'    18.5812 eV   66.73 nm  f=0.0126  <S**2>=0.000
       5 -> 14         0.10172
       5 -> 17         0.41587
       5 -> 20         0.18629
       7 -> 23        -0.40602
       8 -> 22         0.14386
       8 -> 27        -0.10724
       9 -> 33         0.13354

 Excited State  71:      Singlet-A'    18.6433 eV   66.50 nm  f=0.0161  <S**2>=0.000
       5 -> 17         0.34223
       6 -> 18         0.13007
       7 -> 21         0.16658
       7 -> 23         0.42312
       7 -> 24         0.11725
       8 -> 22         0.10735
       9 -> 33        -0.22739
       9 -> 34        -0.15119

 Excited State  72:      Singlet-A"    18.7305 eV   66.19 nm  f=0.0017  <S**2>=0.000
       5 -> 15        -0.12109
       5 -> 18         0.22673
       7 -> 22         0.35994
       8 -> 21        -0.12529
       8 -> 25         0.47744

 Excited State  73:      Singlet-A'    18.7721 eV   66.05 nm  f=0.0032  <S**2>=0.000
       7 -> 23         0.24329
       7 -> 24         0.14045
       9 -> 32         0.25868
       9 -> 33         0.52164
       9 -> 34         0.11080

 Excited State  74:      Singlet-A"    18.9321 eV   65.49 nm  f=0.0181  <S**2>=0.000
       5 -> 16         0.20664
       5 -> 18         0.39944
       5 -> 19         0.28742
       5 -> 21        -0.13176
       7 -> 22         0.10394
       8 -> 23        -0.14133
       8 -> 25        -0.33188

 Excited State  75:      Singlet-A'    19.0377 eV   65.13 nm  f=0.0156  <S**2>=0.000
       4 -> 10        -0.24763
       5 -> 20         0.24350
       6 -> 21        -0.16023
       8 -> 26         0.12400
       9 -> 33        -0.10922
       9 -> 34         0.52207

 Excited State  76:      Singlet-A"    19.0632 eV   65.04 nm  f=0.0203  <S**2>=0.000
       5 -> 18        -0.34939
       5 -> 19         0.51676
       5 -> 21        -0.12711
       8 -> 23         0.10283
       8 -> 25         0.10327
       8 -> 29        -0.10745

 Excited State  77:      Singlet-A'    19.0956 eV   64.93 nm  f=0.0344  <S**2>=0.000
       4 -> 10         0.40209
       6 -> 21         0.10298
       7 -> 21         0.12753
       7 -> 23        -0.11044
       7 -> 24         0.42789
       7 -> 25        -0.10429
       9 -> 33        -0.13004
       9 -> 34         0.19277

 Excited State  78:      Singlet-A'    19.1418 eV   64.77 nm  f=0.0049  <S**2>=0.000
       4 -> 10         0.42007
       5 -> 20         0.35499
       6 -> 21        -0.11782
       7 -> 24        -0.29399
       8 -> 26         0.19119

 Excited State  79:      Singlet-A'    19.2370 eV   64.45 nm  f=0.0597  <S**2>=0.000
       4 -> 10        -0.12827
       5 -> 17        -0.10334
       6 -> 21         0.16488
       7 -> 24         0.15576
       8 -> 26         0.58518
       8 -> 28        -0.11957
       9 -> 34        -0.12544
       9 -> 36        -0.11068

 Excited State  80:      Singlet-A'    19.3386 eV   64.11 nm  f=0.0056  <S**2>=0.000
       5 -> 20         0.12756
       6 -> 19         0.19639
       6 -> 21         0.52416
       6 -> 23        -0.16575
       7 -> 24        -0.15569
       7 -> 25         0.11268

 The electronic state is 1-A'.
 Alpha  occ. eigenvalues --  -14.19558 -10.13406  -1.01085  -0.79392  -0.62026
 Alpha  occ. eigenvalues --   -0.56685  -0.52829  -0.48591  -0.35657
 Alpha virt. eigenvalues --    0.09629   0.13565   0.17102   0.18980   0.20690
 Alpha virt. eigenvalues --    0.22672   0.23684   0.24649   0.28090   0.30305
 Alpha virt. eigenvalues --    0.30479   0.35015   0.35097   0.36921   0.38694

 Mulliken charges:
               1
     1  C    0.508347
     2  N   -0.321692
     3  H   -0.018849
     4  H   -0.089953
     5  H   -0.089953
     6  H    0.006050
     7  H    0.006050
 Sum of Mulliken charges =  -0.00000

 Dipole moment (field-independent basis, Debye):
    X=              1.3067    Y=              0.3769    Z=             -0.0000  Tot=              1.3600
 Quadrupole moment (field-independent basis, Debye-Ang):
   XX=            -14.9670   YY=            -14.2900   ZZ=            -12.5993
   XY=             -2.1186   XZ=              0.0000   YZ=             -0.0000

 Normal termination of Gaussian 16 at Mon Mar 21 20:17:01 2022.
