 Gaussian 16, Revision C.01,
 Gaussian 16:  EM64L-G16RevC.01  3-Jul-2019

 ----------------------------------------------------------------------
 #P TD(Nstates=10000) lc-whpbe/Gen SCF(maxcycles=100) Int(Grid=ultrafin
 e)
 ----------------------------------------------------------------------

 ---------------------
 xGDB7_00001_tier4.com
 ---------------------
 Symbolic Z-matrix:
 Charge =  0 Multiplicity = 1

                         Standard orientation:
 ---------------------------------------------------------------------
 Center     Atomic      Atomic             Coordinates (Angstroms)
 Number     Number       Type             X           Y           Z
 ---------------------------------------------------------------------
      1          6           0       -1.122844   -0.452320    0.000000
      2          6           0        0.000000    0.553997    0.000000
      3          9           0        1.225284   -0.098236    0.000000
      4          1           0       -2.083314    0.066805    0.000000
      5          1           0       -1.072796   -1.085651    0.886148
      6          1           0       -1.072796   -1.085651   -0.886148
      7          1           0       -0.030794    1.189278    0.888716
      8          1           0       -0.030794    1.189278   -0.888716
 ---------------------------------------------------------------------

 SCF Done:  E(RLC-wHPBE) =  -178.841818333     A.U. after   12 cycles

 Excitation energies and oscillator strengths:

 Excited State   1:      Singlet-A"     9.5260 eV  130.15 nm  f=0.0066  <S**2>=0.000
      13 -> 14         0.60996
      13 -> 15         0.25870
      13 -> 17        -0.14293
 This state for optimization and/or second-order correction.
 Total Energy, E(TD-HF/TD-DFT) =  -178.491746003
 Copying the excited state density for this state as the 1-particle RhoCI density.

 Excited State   2:      Singlet-A'     9.8941 eV  125.31 nm  f=0.0080  <S**2>=0.000
      12 -> 14         0.58297
      12 -> 15         0.25212
      12 -> 17        -0.23902

 Excited State   3:      Singlet-A"    10.2792 eV  120.62 nm  f=0.0027  <S**2>=0.000
      10 -> 14        -0.16590
      13 -> 14         0.27314
      13 -> 15        -0.28448
      13 -> 17         0.46242
      13 -> 18         0.15642
      13 -> 19         0.17646
      13 -> 23        -0.13261

 Excited State   4:      Singlet-A'    10.6457 eV  116.46 nm  f=0.0124  <S**2>=0.000
      12 -> 14         0.35323
      12 -> 15        -0.26478
      12 -> 17         0.44181
      12 -> 18         0.17947
      12 -> 19         0.16890
      12 -> 23        -0.12723

 Excited State   5:      Singlet-A"    10.8376 eV  114.40 nm  f=0.1201  <S**2>=0.000
      10 -> 14         0.18900
      10 -> 15        -0.11550
      13 -> 15         0.50223
      13 -> 17         0.37519
      13 -> 21         0.10334

 Excited State   6:      Singlet-A'    11.1821 eV  110.88 nm  f=0.0847  <S**2>=0.000
      11 -> 14         0.48040
      11 -> 15        -0.13411
      12 -> 15        -0.38984
      12 -> 17        -0.23638

 Excited State   7:      Singlet-A'    11.2489 eV  110.22 nm  f=0.2028  <S**2>=0.000
      11 -> 14        -0.18816
      13 -> 16         0.64477

 Excited State   8:      Singlet-A'    11.3038 eV  109.68 nm  f=0.0747  <S**2>=0.000
      11 -> 14         0.39550
      11 -> 15        -0.15329
      12 -> 15         0.40358
      12 -> 17         0.27484
      13 -> 16         0.21995

 Excited State   9:      Singlet-A"    11.4769 eV  108.03 nm  f=0.0247  <S**2>=0.000
      12 -> 16         0.67982

 Excited State  10:      Singlet-A"    11.6538 eV  106.39 nm  f=0.0026  <S**2>=0.000
      10 -> 14         0.56705
      10 -> 17        -0.10016
      10 -> 21        -0.10489
      13 -> 15        -0.16537
      13 -> 18         0.19080
      13 -> 19         0.18196
      13 -> 23        -0.10704

 Excited State  11:      Singlet-A"    12.0303 eV  103.06 nm  f=0.0047  <S**2>=0.000
      10 -> 15        -0.11472
      10 -> 17         0.15232
      13 -> 18         0.55738
      13 -> 19        -0.28214
      13 -> 21        -0.12746

 Excited State  12:      Singlet-A'    12.2155 eV  101.50 nm  f=0.0585  <S**2>=0.000
       9 -> 14         0.14324
      11 -> 14         0.10242
      11 -> 15         0.29058
      12 -> 17        -0.19599
      12 -> 18         0.47537
      12 -> 19         0.18226
      12 -> 23        -0.12829

 Excited State  13:      Singlet-A'    12.2594 eV  101.13 nm  f=0.0105  <S**2>=0.000
       9 -> 17        -0.14525
      12 -> 18        -0.34835
      12 -> 19         0.53131

 Excited State  14:      Singlet-A"    12.2755 eV  101.00 nm  f=0.0971  <S**2>=0.000
      10 -> 15         0.47900
      10 -> 18        -0.17226
      13 -> 18         0.17441
      13 -> 21         0.34069

 Excited State  15:      Singlet-A"    12.3856 eV  100.10 nm  f=0.0442  <S**2>=0.000
      10 -> 14        -0.20604
      10 -> 15        -0.18895
      13 -> 15         0.13678
      13 -> 17        -0.22939
      13 -> 18         0.11612
      13 -> 19         0.51277

 Excited State  16:      Singlet-A'    12.5033 eV   99.16 nm  f=0.0739  <S**2>=0.000
      11 -> 14         0.15901
      11 -> 15         0.54479
      11 -> 21        -0.14278
      12 -> 17         0.13552
      12 -> 18        -0.21433
      12 -> 19        -0.20166

 Excited State  17:      Singlet-A"    12.5980 eV   98.42 nm  f=0.0068  <S**2>=0.000
      12 -> 20         0.67394
      12 -> 36         0.11064

 Excited State  18:      Singlet-A'    12.6592 eV   97.94 nm  f=0.0030  <S**2>=0.000
      13 -> 20         0.65502
      13 -> 22        -0.11248

 Excited State  19:      Singlet-A"    12.9033 eV   96.09 nm  f=0.0011  <S**2>=0.000
      10 -> 17         0.48702
      10 -> 18         0.13449
      10 -> 19         0.13556
      10 -> 23        -0.13548
      13 -> 17        -0.11334
      13 -> 21         0.29163
      13 -> 23         0.16116

 Excited State  20:      Singlet-A'    12.9696 eV   95.60 nm  f=0.1492  <S**2>=0.000
       9 -> 14         0.10986
      10 -> 16         0.35189
      11 -> 17         0.44506
      11 -> 19         0.16834
      11 -> 23        -0.10096
      13 -> 22        -0.25357

 Excited State  21:      Singlet-A'    13.0088 eV   95.31 nm  f=0.0550  <S**2>=0.000
      10 -> 16         0.35127
      11 -> 17        -0.29252
      11 -> 18        -0.25211
      11 -> 19        -0.24259
      12 -> 19        -0.10596
      12 -> 21         0.14964
      13 -> 22        -0.24266

 Excited State  22:      Singlet-A"    13.0261 eV   95.18 nm  f=0.0398  <S**2>=0.000
      11 -> 16         0.64326
      11 -> 22         0.20550

 Excited State  23:      Singlet-A'    13.1622 eV   94.20 nm  f=0.0359  <S**2>=0.000
       9 -> 14         0.19615
       9 -> 15         0.21067
      10 -> 16        -0.10229
      11 -> 18         0.12827
      12 -> 19        -0.16468
      12 -> 21         0.50920
      12 -> 23        -0.18065

 Excited State  24:      Singlet-A"    13.2802 eV   93.36 nm  f=0.0013  <S**2>=0.000
      10 -> 15         0.15143
      10 -> 17         0.10967
      10 -> 19        -0.31059
      13 -> 17         0.10221
      13 -> 19         0.12035
      13 -> 21        -0.20866
      13 -> 23         0.47160

 Excited State  25:      Singlet-A'    13.3751 eV   92.70 nm  f=0.1742  <S**2>=0.000
       9 -> 14        -0.15745
       9 -> 17         0.14180
      10 -> 16         0.18676
      11 -> 17        -0.16134
      11 -> 18         0.48150
      12 -> 21         0.15292
      12 -> 23         0.23739

 Excited State  26:      Singlet-A"    13.4618 eV   92.10 nm  f=0.0038  <S**2>=0.000
       7 -> 14         0.11589
      10 -> 15        -0.32739
      10 -> 17        -0.13755
      10 -> 18        -0.29501
      10 -> 19        -0.10051
      10 -> 23         0.11729
      11 -> 20         0.12935
      13 -> 15        -0.11691
      13 -> 21         0.35768
      13 -> 23         0.13338

 Excited State  27:      Singlet-A'    13.5030 eV   91.82 nm  f=0.0255  <S**2>=0.000
       9 -> 14         0.50297
       9 -> 15         0.10299
       9 -> 17        -0.15739
      11 -> 17        -0.15241
      11 -> 18         0.18974
      12 -> 17         0.11736
      12 -> 19        -0.10619
      12 -> 21        -0.25006
      12 -> 23         0.11013

 Excited State  28:      Singlet-A"    13.5827 eV   91.28 nm  f=0.0028  <S**2>=0.000
       9 -> 16        -0.23415
      12 -> 22         0.56697
      12 -> 24        -0.16262
      13 -> 25        -0.12562

 Excited State  29:      Singlet-A"    13.7023 eV   90.48 nm  f=0.0002  <S**2>=0.000
      10 -> 15         0.12463
      10 -> 17         0.17637
      10 -> 18        -0.21475
      10 -> 19         0.17870
      11 -> 20         0.46894
      11 -> 24        -0.16637
      12 -> 22         0.12211
      13 -> 21        -0.15211
      13 -> 25         0.10618

 Excited State  30:      Singlet-A'    13.7289 eV   90.31 nm  f=0.0639  <S**2>=0.000
       9 -> 14         0.18599
       9 -> 17         0.21856
      10 -> 20        -0.18723
      11 -> 18        -0.19832
      12 -> 21         0.21474
      12 -> 23         0.40522
      13 -> 24        -0.26103

 Excited State  31:      Singlet-A"    13.8140 eV   89.75 nm  f=0.0014  <S**2>=0.000
       7 -> 14        -0.16262
      10 -> 17        -0.22294
      10 -> 18         0.41722
      11 -> 20         0.24698
      13 -> 18         0.15749
      13 -> 23         0.19022
      13 -> 25         0.21641
      13 -> 28         0.10614

 Excited State  32:      Singlet-A'    13.8944 eV   89.23 nm  f=0.0628  <S**2>=0.000
       9 -> 19        -0.10927
       9 -> 23         0.10046
      10 -> 20         0.30014
      11 -> 17         0.12415
      11 -> 18        -0.14255
      12 -> 23         0.31054
      12 -> 25         0.12798
      13 -> 22         0.19238
      13 -> 24         0.34968
      13 -> 27        -0.11611

 Excited State  33:      Singlet-A"    13.9093 eV   89.14 nm  f=0.0313  <S**2>=0.000
       7 -> 15         0.14654
      10 -> 17        -0.10997
      10 -> 19         0.35717
      10 -> 21        -0.28212
      10 -> 23         0.17003
      12 -> 22        -0.10986
      13 -> 23         0.19252
      13 -> 25        -0.30727
      13 -> 26         0.17438

 Excited State  34:      Singlet-A"    14.0071 eV   88.52 nm  f=0.0458  <S**2>=0.000
       9 -> 20         0.10265
      10 -> 18        -0.10202
      10 -> 19         0.19844
      11 -> 20        -0.17368
      12 -> 22         0.19495
      12 -> 24         0.52505
      12 -> 27        -0.13713
      13 -> 25         0.11374

 Excited State  35:      Singlet-A'    14.0199 eV   88.43 nm  f=0.0034  <S**2>=0.000
      10 -> 16         0.39471
      13 -> 22         0.51400

 Excited State  36:      Singlet-A'    14.1584 eV   87.57 nm  f=0.0301  <S**2>=0.000
       9 -> 14        -0.12663
       9 -> 15         0.12018
       9 -> 17        -0.19769
       9 -> 18        -0.12318
      11 -> 17        -0.16320
      11 -> 18        -0.10515
      11 -> 19         0.41541
      11 -> 21        -0.18463
      11 -> 23         0.16739
      11 -> 25         0.12083
      13 -> 24        -0.14320

 Excited State  37:      Singlet-A'    14.2511 eV   87.00 nm  f=0.0606  <S**2>=0.000
       8 -> 14         0.28225
       8 -> 15         0.13049
       9 -> 15        -0.19098
       9 -> 17         0.11099
      11 -> 17        -0.13427
      11 -> 19         0.35174
      11 -> 21         0.24977
      12 -> 25        -0.11706
      13 -> 22        -0.10431
      13 -> 24         0.20671

 Excited State  38:      Singlet-A"    14.4003 eV   86.10 nm  f=0.1628  <S**2>=0.000
      10 -> 17        -0.13270
      10 -> 18        -0.10463
      10 -> 19         0.25296
      10 -> 21         0.10035
      11 -> 20        -0.29785
      12 -> 24        -0.30929
      13 -> 25         0.36686

 Excited State  39:      Singlet-A'    14.4912 eV   85.56 nm  f=0.0458  <S**2>=0.000
       9 -> 15         0.17766
       9 -> 17         0.15241
      10 -> 20         0.25681
      10 -> 22        -0.14490
      11 -> 19         0.10649
      11 -> 21         0.19817
      12 -> 25         0.35486
      13 -> 24        -0.23206
      13 -> 27         0.20144

 Excited State  40:      Singlet-A'    14.5310 eV   85.32 nm  f=0.1711  <S**2>=0.000
       8 -> 14         0.24286
       8 -> 15         0.13134
       9 -> 14        -0.13963
       9 -> 15         0.32755
       9 -> 17        -0.12381
       9 -> 19        -0.11583
      10 -> 20        -0.11334
      11 -> 17         0.10136
      11 -> 21         0.23753
      12 -> 23         0.10280
      12 -> 25        -0.21054
      13 -> 24        -0.16018

 Excited State  41:      Singlet-A"    14.6058 eV   84.89 nm  f=0.1121  <S**2>=0.000
       7 -> 14         0.50245
       7 -> 15         0.21987
       7 -> 17        -0.11541
      10 -> 18         0.12240
      10 -> 21        -0.17150
      13 -> 23        -0.15717
      13 -> 25         0.20414

 Excited State  42:      Singlet-A'    14.6204 eV   84.80 nm  f=0.0058  <S**2>=0.000
       9 -> 15         0.36170
       9 -> 17         0.26483
      10 -> 20        -0.32166
      12 -> 21        -0.13530
      13 -> 24         0.27051

 Excited State  43:      Singlet-A'    14.8137 eV   83.70 nm  f=0.1522  <S**2>=0.000
       8 -> 14        -0.29768
       9 -> 15        -0.14428
       9 -> 17        -0.14995
       9 -> 18        -0.13708
      10 -> 20        -0.27124
      11 -> 15         0.10265
      11 -> 21         0.34769
      11 -> 25        -0.11336
      12 -> 25         0.15859
      12 -> 26         0.11046

 Excited State  44:      Singlet-A'    14.9343 eV   83.02 nm  f=0.0295  <S**2>=0.000
       8 -> 14         0.33253
       8 -> 15         0.12331
       9 -> 15        -0.17960
       9 -> 17        -0.12822
      10 -> 20        -0.18301
      11 -> 15        -0.11796
      11 -> 17         0.13690
      11 -> 19        -0.11902
      11 -> 21        -0.14418
      12 -> 25         0.36416

 Excited State  45:      Singlet-A"    14.9407 eV   82.98 nm  f=0.0235  <S**2>=0.000
       8 -> 16        -0.20138
       9 -> 16        -0.30262
      11 -> 16        -0.15932
      11 -> 22         0.49376
      11 -> 24         0.10587
      12 -> 22        -0.14299

 Excited State  46:      Singlet-A"    14.9794 eV   82.77 nm  f=0.0100  <S**2>=0.000
       8 -> 16        -0.15788
       9 -> 16         0.54636
      11 -> 16        -0.10098
      11 -> 22         0.28465
      12 -> 22         0.19688

 Excited State  47:      Singlet-A"    15.1620 eV   81.77 nm  f=0.0078  <S**2>=0.000
       7 -> 17         0.18686
      10 -> 18         0.13224
      10 -> 21         0.17600
      10 -> 23        -0.13079
      10 -> 25        -0.14483
      13 -> 18         0.10006
      13 -> 26         0.47562
      13 -> 28        -0.23182

 Excited State  48:      Singlet-A"    15.1634 eV   81.77 nm  f=0.0630  <S**2>=0.000
       7 -> 14         0.29919
      10 -> 15         0.11596
      10 -> 19         0.11863
      10 -> 21         0.44975
      13 -> 23         0.18258
      13 -> 25        -0.20634
      13 -> 26        -0.18230

 Excited State  49:      Singlet-A'    15.1663 eV   81.75 nm  f=0.0906  <S**2>=0.000
       7 -> 16         0.13185
       8 -> 14         0.21391
       8 -> 17         0.14175
       9 -> 19         0.26875
      10 -> 22         0.27508
      12 -> 25         0.15506
      12 -> 26         0.33392
      13 -> 27        -0.22943

 Excited State  50:      Singlet-A'    15.2299 eV   81.41 nm  f=0.1097  <S**2>=0.000
       8 -> 17        -0.29727
       9 -> 14         0.10781
       9 -> 17         0.24032
       9 -> 18        -0.21511
      11 -> 23        -0.14108
      12 -> 26         0.32620
      12 -> 28        -0.21664
      13 -> 27         0.13269

 Excited State  51:      Singlet-A"    15.3302 eV   80.88 nm  f=0.0049  <S**2>=0.000
       7 -> 14         0.15071
       7 -> 15        -0.25765
       7 -> 17         0.38584
       7 -> 18         0.15978
       7 -> 19         0.23075
       7 -> 23        -0.17934
       7 -> 28         0.10367
      10 -> 21        -0.12060
      10 -> 25         0.19808
      13 -> 25         0.11328

 Excited State  52:      Singlet-A'    15.4020 eV   80.50 nm  f=0.0327  <S**2>=0.000
       8 -> 14         0.15944
       8 -> 15        -0.19002
       8 -> 17         0.34713
       8 -> 18         0.11130
       8 -> 19         0.11289
       9 -> 18        -0.10128
      10 -> 22        -0.30779
      11 -> 21        -0.14103
      12 -> 25        -0.10990
      13 -> 27         0.25085

 Excited State  53:      Singlet-A"    15.6235 eV   79.36 nm  f=0.0008  <S**2>=0.000
       9 -> 16        -0.10977
       9 -> 20         0.10386
       9 -> 22        -0.14482
      10 -> 23        -0.26672
      11 -> 24         0.14358
      12 -> 27         0.50185
      13 -> 28        -0.12722

 Excited State  54:      Singlet-A'    15.6704 eV   79.12 nm  f=0.0466  <S**2>=0.000
       9 -> 17        -0.21084
       9 -> 18         0.36127
       9 -> 19         0.24108
      11 -> 23        -0.11514
      12 -> 26         0.21436
      12 -> 28         0.15426
      13 -> 24         0.12397
      13 -> 27         0.24092

 Excited State  55:      Singlet-A"    15.6815 eV   79.06 nm  f=0.0063  <S**2>=0.000
       7 -> 15        -0.13357
       7 -> 17        -0.20825
       9 -> 22        -0.10115
      10 -> 19        -0.11552
      10 -> 23         0.39358
      10 -> 25         0.11842
      11 -> 24        -0.13382
      12 -> 27         0.33312
      13 -> 26         0.11750

 Excited State  56:      Singlet-A'    15.7202 eV   78.87 nm  f=0.0611  <S**2>=0.000
       8 -> 15         0.41001
       8 -> 17         0.20437
       8 -> 21         0.14316
       9 -> 18        -0.11666
       9 -> 19         0.17489
      11 -> 23         0.16616
      11 -> 25         0.34665

 Excited State  57:      Singlet-A"    15.8068 eV   78.44 nm  f=0.0047  <S**2>=0.000
       7 -> 15        -0.20072
       7 -> 17        -0.17457
      10 -> 25         0.13128
      11 -> 22        -0.11675
      11 -> 24         0.45821
      11 -> 27        -0.20625
      12 -> 27        -0.11951
      13 -> 26         0.14359
      13 -> 28        -0.14454

 Excited State  58:      Singlet-A'    15.8928 eV   78.01 nm  f=0.0254  <S**2>=0.000
       7 -> 16         0.14153
       8 -> 17         0.15436
       9 -> 18         0.20823
       9 -> 19        -0.28542
       9 -> 23        -0.11016
      10 -> 22         0.13448
      10 -> 24         0.32806
      10 -> 27        -0.10037
      11 -> 25         0.10329
      12 -> 26         0.19762
      12 -> 28        -0.13746
      13 -> 27         0.11166

 Excited State  59:      Singlet-A'    15.9856 eV   77.56 nm  f=0.0080  <S**2>=0.000
       7 -> 16         0.10064
       9 -> 18        -0.18123
      10 -> 22         0.39605
      12 -> 26        -0.20019
      13 -> 24         0.11951
      13 -> 27         0.40878

 Excited State  60:      Singlet-A"    16.0391 eV   77.30 nm  f=0.0000  <S**2>=0.000
       9 -> 20         0.59199
       9 -> 36         0.10008
      11 -> 24        -0.14217
      12 -> 24        -0.13702
      13 -> 28        -0.14515

 Excited State  61:      Singlet-A'    16.0513 eV   77.24 nm  f=0.1380  <S**2>=0.000
       7 -> 16         0.16424
       7 -> 20        -0.10245
       9 -> 18        -0.18303
       9 -> 19         0.22011
      10 -> 24         0.40653
      10 -> 27        -0.14535
      11 -> 23        -0.26844
      12 -> 26        -0.14038
      12 -> 31        -0.10411

 Excited State  62:      Singlet-A"    16.1218 eV   76.90 nm  f=0.0000  <S**2>=0.000
       8 -> 16         0.35710
       9 -> 20         0.21447
      10 -> 25        -0.14195
      11 -> 22         0.13384
      13 -> 26         0.19928
      13 -> 28         0.30274
      13 -> 29         0.22689

 Excited State  63:      Singlet-A"    16.1679 eV   76.69 nm  f=0.0204  <S**2>=0.000
       7 -> 14        -0.13480
       7 -> 15         0.41462
       7 -> 17         0.13904
       8 -> 16         0.25142
      10 -> 21         0.16228
      10 -> 23         0.19389
      11 -> 24         0.20652
      13 -> 28        -0.10260
      13 -> 29        -0.14776

 Excited State  64:      Singlet-A"    16.2440 eV   76.33 nm  f=0.1354  <S**2>=0.000
       7 -> 15        -0.15283
       7 -> 17        -0.13221
       8 -> 16         0.38515
      10 -> 23        -0.14731
      10 -> 25         0.23941
      11 -> 24        -0.16311
      11 -> 27         0.16685
      12 -> 27        -0.11363
      13 -> 28        -0.24325

 Excited State  65:      Singlet-A'    16.2506 eV   76.30 nm  f=0.0276  <S**2>=0.000
       7 -> 16        -0.23881
       8 -> 14         0.13501
       8 -> 15        -0.29199
       8 -> 19         0.10787
       9 -> 17        -0.11403
       9 -> 21         0.17636
      11 -> 21         0.17120
      11 -> 25         0.32004
      11 -> 26         0.19524
      12 -> 28        -0.14168

 Excited State  66:      Singlet-A'    16.3817 eV   75.68 nm  f=0.0411  <S**2>=0.000
       7 -> 16         0.22723
       8 -> 15        -0.21585
       8 -> 17        -0.20406
       9 -> 21        -0.11865
       9 -> 23         0.10697
      10 -> 22        -0.11294
      10 -> 24         0.11995
      11 -> 21         0.12718
      11 -> 23         0.23117
      11 -> 25         0.16254
      12 -> 28         0.29103
      12 -> 29         0.13924

 Excited State  67:      Singlet-A'    16.4074 eV   75.57 nm  f=0.0138  <S**2>=0.000
       7 -> 16         0.37699
       9 -> 21        -0.12586
      10 -> 22        -0.16065

 The electronic state is 1-A'.
 Alpha  occ. eigenvalues --  -24.46881 -10.19702 -10.12173  -1.29294  -0.90846
 Alpha  occ. eigenvalues --   -0.76620  -0.63151  -0.62852  -0.58182  -0.52244
 Alpha  occ. eigenvalues --   -0.51702  -0.46111  -0.45173
 Alpha virt. eigenvalues --    0.09147   0.12026   0.15715   0.15769   0.18376
 Alpha virt. eigenvalues --    0.19716   0.20069   0.22134   0.22550   0.24624
 Alpha virt. eigenvalues --    0.26274   0.27735   0.29917   0.30930   0.34981

 Mulliken charges:
               1
     1  C    0.058268
     2  C    0.391165
     3  F   -0.456716
     4  H    0.055525
     5  H    0.046361
     6  H    0.046361
     7  H   -0.070482
     8  H   -0.070482
 Sum of Mulliken charges =  -0.00000

 Dipole moment (field-independent basis, Debye):
    X=             -1.8880    Y=              0.7531    Z=              0.0000  Tot=              2.0327
 Quadrupole moment (field-independent basis, Debye-Ang):
   XX=            -20.9565   YY=            -18.1853   ZZ=            -18.2091
   XY=              0.3157   XZ=              0.0000   YZ=              0.0000

 Normal termination of Gaussian 16 at Mon Mar 21 20:18:01 2022.
