 Gaussian 16, Revision C.01,
 Gaussian 16:  EM64L-G16RevC.01  3-Jul-2019

 ----------------------------------------------------------------------
 #P TD(Nstates=10000) lc-whpbe/Gen SCF(maxcycles=100) Int(Grid=ultrafin
 e)
 ----------------------------------------------------------------------

 ---------------------
 xGDB7_00001_tier4.com
 ---------------------
 Symbolic Z-matrix:
 Charge =  0 Multiplicity = 1

                         Standard orientation:
 ---------------------------------------------------------------------
 Center     Atomic      Atomic             Coordinates (Angstroms)
 Number     Number       Type             X           Y           Z
 ---------------------------------------------------------------------
      1          6           0        0.000000    0.000000   -1.173653
      2          6           0        0.000000    0.000000    0.280989
      3          7           0        0.000000    0.000000    1.427442
      4          1           0        0.000000    1.024088   -1.545371
      5          1           0       -0.886886   -0.512044   -1.545371
      6          1           0        0.886886   -0.512044   -1.545371
 ---------------------------------------------------------------------

 SCF Done:  E(RLC-wHPBE) =  -132.566905678     A.U. after   12 cycles

 Excitation energies and oscillator strengths:

 Excited state symmetry could not be determined.
 Excited State   1:      Singlet-?Sym    7.9698 eV  155.57 nm  f=0.0000  <S**2>=0.000
      10 -> 13         0.46678
      10 -> 16         0.14199
      11 -> 14        -0.46678
      11 -> 17         0.14199
 This state for optimization and/or second-order correction.
 Total Energy, E(TD-HF/TD-DFT) =  -132.274022247
 Copying the excited state density for this state as the 1-particle RhoCI density.

 Excited state symmetry could not be determined.
 Excited State   2:      Singlet-?Sym    8.4106 eV  147.41 nm  f=0.0014  <S**2>=0.000
      10 -> 14        -0.47002
      10 -> 17         0.13615
      11 -> 13         0.47002
      11 -> 16         0.13615

 Excited state symmetry could not be determined.
 Excited State   3:      Singlet-?Sym    8.4106 eV  147.41 nm  f=0.0014  <S**2>=0.000
      10 -> 13         0.47002
      10 -> 16         0.13615
      11 -> 14         0.47002
      11 -> 17        -0.13615

 Excited State   4:      Singlet-E      9.5368 eV  130.01 nm  f=0.0047  <S**2>=0.000
      11 -> 12         0.64825
      11 -> 15         0.23987

 Excited State   5:      Singlet-E      9.5368 eV  130.01 nm  f=0.0047  <S**2>=0.000
      10 -> 12         0.64825
      10 -> 15         0.23987

 Excited State   6:      Singlet-E      9.7784 eV  126.79 nm  f=0.0216  <S**2>=0.000
       9 -> 13         0.66307
       9 -> 16         0.19679

 Excited State   7:      Singlet-E      9.7784 eV  126.79 nm  f=0.0216  <S**2>=0.000
       9 -> 14         0.66307
       9 -> 17        -0.19679

 Excited State   8:      Singlet-A1    10.7371 eV  115.47 nm  f=0.0767  <S**2>=0.000
       9 -> 12         0.60260
       9 -> 15         0.32528
       9 -> 20        -0.11799

 Excited State   9:      Singlet-E     11.4619 eV  108.17 nm  f=0.1387  <S**2>=0.000
       7 -> 12        -0.21231
      10 -> 12        -0.22198
      10 -> 15         0.61886

 Excited State  10:      Singlet-E     11.4619 eV  108.17 nm  f=0.1387  <S**2>=0.000
       8 -> 12        -0.21231
      11 -> 12        -0.22198
      11 -> 15         0.61886

 Excited state symmetry could not be determined.
 Excited State  11:      Singlet-?Sym   11.5949 eV  106.93 nm  f=0.9036  <S**2>=0.000
       9 -> 12        -0.12281
       9 -> 24         0.11638
      10 -> 14         0.45155
      11 -> 13         0.45155

 Excited state symmetry could not be determined.
 Excited State  12:      Singlet-?Sym   12.3839 eV  100.12 nm  f=0.0000  <S**2>=0.000
       7 -> 13        -0.23190
       8 -> 14         0.23190
      10 -> 13        -0.15443
      10 -> 16         0.31445
      10 -> 18        -0.25085
      11 -> 14         0.15443
      11 -> 17         0.31445
      11 -> 19        -0.25085

 Excited state symmetry could not be determined.
 Excited State  13:      Singlet-?Sym   12.4778 eV   99.36 nm  f=0.0400  <S**2>=0.000
       7 -> 13        -0.14071
       8 -> 12        -0.10525
       8 -> 14        -0.14071
      10 -> 13        -0.14590
      10 -> 16         0.40481
      10 -> 18        -0.15021
      11 -> 14        -0.14590
      11 -> 17        -0.40481
      11 -> 19         0.15021

 Excited state symmetry could not be determined.
 Excited State  14:      Singlet-?Sym   12.4778 eV   99.36 nm  f=0.0400  <S**2>=0.000
       7 -> 12        -0.10525
       7 -> 14         0.14071
       8 -> 13        -0.14071
      10 -> 14         0.14590
      10 -> 17         0.40481
      10 -> 19        -0.15021
      11 -> 13        -0.14590
      11 -> 16         0.40481
      11 -> 18        -0.15021

 Excited State  15:      Singlet-A1    12.7825 eV   97.00 nm  f=0.0122  <S**2>=0.000
       6 -> 12        -0.13130
       9 -> 12        -0.25900
       9 -> 15         0.47154
       9 -> 20        -0.13840
      10 -> 17        -0.24668
      10 -> 19         0.11553
      11 -> 16         0.24668
      11 -> 18        -0.11553

 Excited State  16:      Singlet-E     12.8658 eV   96.37 nm  f=0.0359  <S**2>=0.000
       6 -> 14        -0.10905
       7 -> 12         0.16859
       7 -> 14         0.10521
       7 -> 15         0.11350
       8 -> 13        -0.10521
      10 -> 15         0.12820
      10 -> 20         0.59843
      10 -> 24         0.11199
      10 -> 30        -0.10003

 Excited State  17:      Singlet-E     12.8658 eV   96.37 nm  f=0.0359  <S**2>=0.000
       6 -> 13        -0.10905
       7 -> 13        -0.10521
       8 -> 12         0.16859
       8 -> 14        -0.10521
       8 -> 15         0.11350
      11 -> 15         0.12820
      11 -> 20         0.59843
      11 -> 24         0.11199
      11 -> 30        -0.10003

 Excited state symmetry could not be determined.
 Excited State  18:      Singlet-?Sym   12.9848 eV   95.48 nm  f=0.0000  <S**2>=0.000
      10 -> 16         0.27589
      10 -> 18         0.38335
      11 -> 17         0.27589
      11 -> 19         0.38335

 Excited State  19:      Singlet-E     13.0335 eV   95.13 nm  f=0.0510  <S**2>=0.000
       8 -> 12         0.57548
      10 -> 18        -0.21218
      11 -> 12        -0.10554
      11 -> 15         0.13490
      11 -> 19         0.21218
      11 -> 20        -0.16925

 Excited State  20:      Singlet-E     13.0335 eV   95.13 nm  f=0.0510  <S**2>=0.000
       7 -> 12         0.57548
      10 -> 12        -0.10554
      10 -> 15         0.13490
      10 -> 19        -0.21217
      10 -> 20        -0.16925
      11 -> 18        -0.21218

 Excited state symmetry could not be determined.
 Excited State  21:      Singlet-?Sym   13.1216 eV   94.49 nm  f=0.3227  <S**2>=0.000
       6 -> 12        -0.11047
       9 -> 15         0.18990
      10 -> 19        -0.42399
      11 -> 18         0.42400

 Excited state symmetry could not be determined.
 Excited State  22:      Singlet-?Sym   13.1383 eV   94.37 nm  f=0.0012  <S**2>=0.000
       7 -> 12         0.24867
      10 -> 17         0.13871
      10 -> 19         0.39881
      10 -> 20        -0.14935
      11 -> 16         0.13871
      11 -> 18         0.39880

 Excited state symmetry could not be determined.
 Excited State  23:      Singlet-?Sym   13.1383 eV   94.37 nm  f=0.0012  <S**2>=0.000
       8 -> 12        -0.24868
      10 -> 16        -0.13871
      10 -> 18        -0.39881
      11 -> 17         0.13871
      11 -> 19         0.39881
      11 -> 20         0.14935

 Excited state symmetry could not be determined.
 Excited State  24:      Singlet-?Sym   13.2146 eV   93.82 nm  f=0.0000  <S**2>=0.000
       7 -> 13         0.42581
       8 -> 14        -0.42581
      10 -> 16         0.19875
      10 -> 18        -0.13122
      11 -> 17         0.19875
      11 -> 19        -0.13122

 Excited state symmetry could not be determined.
 Excited State  25:      Singlet-?Sym   13.2717 eV   93.42 nm  f=0.0877  <S**2>=0.000
       9 -> 12        -0.17214
       9 -> 15         0.24616
       9 -> 20        -0.10690
       9 -> 24        -0.10217
      10 -> 17         0.37967
      10 -> 19         0.16240
      11 -> 16        -0.37966
      11 -> 18        -0.16240

 Excited state symmetry could not be determined.
 Excited State  26:      Singlet-?Sym   13.3658 eV   92.76 nm  f=0.0275  <S**2>=0.000
       6 -> 14        -0.14958
       7 -> 14        -0.43059
       8 -> 13         0.43059
      10 -> 17         0.16161
      10 -> 22        -0.10956
      11 -> 16         0.16161
      11 -> 21        -0.10956

 Excited state symmetry could not be determined.
 Excited State  27:      Singlet-?Sym   13.3658 eV   92.76 nm  f=0.0275  <S**2>=0.000
       6 -> 13        -0.14958
       7 -> 13         0.43059
       8 -> 14         0.43059
      10 -> 16         0.16161
      10 -> 21        -0.10956
      11 -> 17        -0.16161
      11 -> 22         0.10956

 Excited State  28:      Singlet-E     14.0597 eV   88.18 nm  f=0.0081  <S**2>=0.000
       6 -> 14         0.14638
       9 -> 14         0.18659
       9 -> 17         0.54058
       9 -> 19        -0.32514
       9 -> 29        -0.10271

 Excited State  29:      Singlet-E     14.0597 eV   88.18 nm  f=0.0081  <S**2>=0.000
       6 -> 13        -0.14638
       9 -> 13        -0.18659
       9 -> 16         0.54058
       9 -> 18        -0.32514
       9 -> 28        -0.10271

 Excited state symmetry could not be determined.
 Excited State  30:      Singlet-?Sym   14.1593 eV   87.56 nm  f=0.1183  <S**2>=0.000
       6 -> 15         0.14956
       6 -> 20         0.10629
       7 -> 14         0.37990
       8 -> 13         0.37990
       9 -> 15         0.12775
       9 -> 20         0.29810
       9 -> 23         0.13430

 Excited State  31:      Singlet-A1    14.2343 eV   87.10 nm  f=0.1261  <S**2>=0.000
       6 -> 12         0.64153
       9 -> 20        -0.13962

 Excited State  32:      Singlet-A1    14.3302 eV   86.52 nm  f=0.1469  <S**2>=0.000
       6 -> 12         0.17078
       7 -> 14        -0.23230
       8 -> 13        -0.23230
       9 -> 15         0.20405
       9 -> 20         0.50432
       9 -> 23         0.17621

 Excited State  33:      Singlet-E     14.5206 eV   85.39 nm  f=0.0263  <S**2>=0.000
       6 -> 14        -0.28992
       9 -> 17         0.31964
       9 -> 19         0.42632
       9 -> 22        -0.24216
       9 -> 26        -0.11763
      10 -> 24         0.11895

 Excited State  34:      Singlet-E     14.5206 eV   85.39 nm  f=0.0263  <S**2>=0.000
       6 -> 13         0.28992
       9 -> 16         0.31964
       9 -> 18         0.42632
       9 -> 21        -0.24216
       9 -> 25        -0.11763
      11 -> 24        -0.11895

 Excited State  35:      Singlet-E     14.5320 eV   85.32 nm  f=0.0160  <S**2>=0.000
       6 -> 14         0.51757
       7 -> 19        -0.10491
       8 -> 18        -0.10491
       9 -> 19         0.33625
       9 -> 26        -0.10310
      10 -> 20         0.11344
      10 -> 22        -0.11860
      11 -> 21        -0.11860

 Excited State  36:      Singlet-E     14.5320 eV   85.32 nm  f=0.0160  <S**2>=0.000
       6 -> 13         0.51757
       7 -> 18        -0.10491
       8 -> 19         0.10491
       9 -> 18        -0.33625
       9 -> 25         0.10310
      10 -> 21        -0.11860
      11 -> 20         0.11344
      11 -> 22         0.11860

 Excited state symmetry could not be determined.
 Excited State  37:      Singlet-?Sym   14.6966 eV   84.36 nm  f=0.0034  <S**2>=0.000
       7 -> 16         0.10217
       8 -> 15         0.33023
       8 -> 17        -0.10217
       9 -> 18        -0.14219
      10 -> 21         0.34351
      11 -> 22        -0.34351
      11 -> 24        -0.20058

 Excited state symmetry could not be determined.
 Excited State  38:      Singlet-?Sym   14.6966 eV   84.36 nm  f=0.0034  <S**2>=0.000
       7 -> 15         0.33023
       7 -> 17         0.10217
       8 -> 16         0.10217
       9 -> 19         0.14219
      10 -> 22         0.34351
      10 -> 24        -0.20058
      11 -> 21         0.34351

 Excited State  39:      Singlet-E     14.7810 eV   83.88 nm  f=0.0074  <S**2>=0.000
       6 -> 13        -0.10787
       8 -> 15         0.46323
       8 -> 20         0.11885
      10 -> 21        -0.25190
      11 -> 22         0.25190
      11 -> 24        -0.26590

 Excited State  40:      Singlet-E     14.7810 eV   83.88 nm  f=0.0074  <S**2>=0.000
       6 -> 14        -0.10787
       7 -> 15         0.46323
       7 -> 20         0.11885
      10 -> 22        -0.25190
      10 -> 24        -0.26590
      11 -> 21        -0.25190

 Excited state symmetry could not be determined.
 Excited State  41:      Singlet-?Sym   14.7970 eV   83.79 nm  f=0.0000  <S**2>=0.000
       7 -> 16         0.11948
       8 -> 17         0.11948
      10 -> 21         0.44986
      11 -> 22         0.44986

 Excited State  42:      Singlet-E     15.2528 eV   81.29 nm  f=0.0065  <S**2>=0.000
       6 -> 13         0.10520
       7 -> 18        -0.10667
       8 -> 15         0.24622
       8 -> 19         0.10667
       8 -> 20         0.20116
      11 -> 20        -0.12447
      11 -> 23        -0.30032
      11 -> 24         0.46833

 Excited State  43:      Singlet-E     15.2528 eV   81.29 nm  f=0.0065  <S**2>=0.000
       6 -> 14         0.10520
       7 -> 15         0.24623
       7 -> 19        -0.10667
       7 -> 20         0.20116
       8 -> 18        -0.10667
      10 -> 20        -0.12447
      10 -> 23        -0.30032
      10 -> 24         0.46833

 Excited state symmetry could not be determined.
 Excited State  44:      Singlet-?Sym   15.2633 eV   81.23 nm  f=0.0104  <S**2>=0.000
       6 -> 20        -0.13780
       9 -> 23         0.23191
       9 -> 24        -0.15679
      10 -> 17        -0.11847
      10 -> 22        -0.38663
      11 -> 16         0.11847
      11 -> 21         0.38663

 Excited state symmetry could not be determined.
 Excited State  45:      Singlet-?Sym   15.4993 eV   79.99 nm  f=0.0000  <S**2>=0.000
       7 -> 16        -0.24050
       7 -> 18         0.39481
       8 -> 17        -0.24050
       8 -> 19         0.39481
      10 -> 25         0.15335
      11 -> 26         0.15335

 Excited state symmetry could not be determined.
 Excited State  46:      Singlet-?Sym   15.5732 eV   79.61 nm  f=0.0648  <S**2>=0.000
       7 -> 16         0.43862
       8 -> 17        -0.43862
      10 -> 21        -0.10174
      11 -> 22         0.10174
      11 -> 23         0.14177

 Excited state symmetry could not be determined.
 Excited State  47:      Singlet-?Sym   15.5732 eV   79.61 nm  f=0.0648  <S**2>=0.000
       7 -> 17         0.43862
       8 -> 16         0.43862
      10 -> 22        -0.10174
      10 -> 23         0.14177
      11 -> 21        -0.10174

 Excited State  48:      Singlet-E     15.6812 eV   79.07 nm  f=0.0306  <S**2>=0.000
       8 -> 15         0.12656
       8 -> 20        -0.21975
       9 -> 16         0.15143
       9 -> 18         0.13303
       9 -> 21         0.43405
       9 -> 28         0.14521
       9 -> 32        -0.11299
      11 -> 23         0.33470
      11 -> 24         0.11859

 Excited State  49:      Singlet-E     15.6812 eV   79.07 nm  f=0.0306  <S**2>=0.000
       7 -> 15        -0.12656
       7 -> 20         0.21975
       9 -> 17         0.15143
       9 -> 19         0.13303
       9 -> 22         0.43405
       9 -> 29         0.14522
       9 -> 33        -0.11299
      10 -> 23        -0.33470
      10 -> 24        -0.11859

 Excited state symmetry could not be determined.
 Excited State  50:      Singlet-?Sym   15.7262 eV   78.84 nm  f=0.0005  <S**2>=0.000
       6 -> 15         0.13497
       7 -> 17         0.26645
       7 -> 19        -0.35151
       8 -> 16        -0.26645
       8 -> 18         0.35151
      10 -> 26        -0.15116
      11 -> 25         0.15116

 Excited State  51:      Singlet-E     15.7517 eV   78.71 nm  f=0.0260  <S**2>=0.000
       8 -> 15        -0.18004
       8 -> 20         0.16865
       9 -> 16         0.11233
       9 -> 18         0.11183
       9 -> 21         0.37968
       9 -> 28         0.12221
       9 -> 32        -0.10011
      11 -> 23        -0.33921
      11 -> 24        -0.26888

 Excited State  52:      Singlet-E     15.7517 eV   78.71 nm  f=0.0260  <S**2>=0.000
       7 -> 15         0.18004
       7 -> 20        -0.16865
       9 -> 17         0.11233
       9 -> 19         0.11183
       9 -> 22         0.37968
       9 -> 29         0.12221
       9 -> 33        -0.10011
      10 -> 23         0.33921
      10 -> 24         0.26888

 Excited state symmetry could not be determined.
 Excited State  53:      Singlet-?Sym   15.7698 eV   78.62 nm  f=0.0000  <S**2>=0.000
       7 -> 16         0.40427
       7 -> 18         0.19903
       8 -> 17         0.40427
       8 -> 19         0.19903
      10 -> 21        -0.12154
      11 -> 22        -0.12154

 Excited State  54:      Singlet-E     16.1492 eV   76.77 nm  f=0.0431  <S**2>=0.000
       6 -> 16         0.11613
       7 -> 18        -0.16840
       8 -> 15        -0.10965
       8 -> 19         0.16840
       8 -> 20         0.46568
       8 -> 24         0.15348
       8 -> 30        -0.10169
      11 -> 23         0.34958

 Excited State  55:      Singlet-E     16.1492 eV   76.77 nm  f=0.0431  <S**2>=0.000
       6 -> 17        -0.11613
       7 -> 15        -0.10965
       7 -> 19        -0.16841
       7 -> 20         0.46568
       7 -> 24         0.15348
       7 -> 30        -0.10169
       8 -> 18        -0.16840
      10 -> 23         0.34958

 Excited State  56:      Singlet-A1    16.1578 eV   76.73 nm  f=0.0032  <S**2>=0.000
       6 -> 15         0.41804
       7 -> 17         0.22538
       7 -> 19         0.21323
       8 -> 16        -0.22538
       8 -> 18        -0.21324
       9 -> 23        -0.17827
      10 -> 22        -0.10687
      10 -> 26         0.12052
      11 -> 21         0.10687
      11 -> 25        -0.12052

 Excited State  57:      Singlet-A1    16.4077 eV   75.56 nm  f=0.0000  <S**2>=0.000
       6 -> 15         0.18586
       7 -> 17         0.10623
       7 -> 19         0.12162
       8 -> 16        -0.10623
       8 -> 18        -0.12162
       9 -> 20        -0.12812
       9 -> 23         0.36316
       9 -> 24        -0.30810
      10 -> 22         0.19870
      10 -> 26        -0.11743
      11 -> 21        -0.19870
      11 -> 25         0.11743

 Excited State  58:      Singlet-E     16.4598 eV   75.33 nm  f=0.3447  <S**2>=0.000
       6 -> 14         0.15664
       6 -> 17         0.36736
       7 -> 19         0.30874
       7 -> 20         0.25591
       8 -> 18         0.30874
      10 -> 23         0.10979

 Excited State  59:      Singlet-E     16.4598 eV   75.33 nm  f=0.3447  <S**2>=0.000
       6 -> 13        -0.15664
       6 -> 16         0.36736
       7 -> 18        -0.30874
       8 -> 19         0.30874
       8 -> 20        -0.25591
      11 -> 23        -0.10979

 Excited State  60:      Singlet-A1    16.6481 eV   74.47 nm  f=0.0669  <S**2>=0.000
       6 -> 15         0.42925
       6 -> 20         0.12212
       7 -> 17        -0.28648
       8 -> 16         0.28648
       9 -> 20        -0.11687
      10 -> 26        -0.12737
      11 -> 25         0.12737

 Excited State  61:      Singlet-E     16.8349 eV   73.65 nm  f=0.0955  <S**2>=0.000
       6 -> 17         0.41346
       6 -> 19        -0.28557
       7 -> 19        -0.27021
       8 -> 18        -0.27021
      10 -> 26         0.14488
      11 -> 25         0.14488

 Excited State  62:      Singlet-E     16.8349 eV   73.65 nm  f=0.0955  <S**2>=0.000
       6 -> 16         0.41346
       6 -> 18        -0.28557
       7 -> 18         0.27021
       8 -> 19        -0.27021
      10 -> 25        -0.14488
      11 -> 26         0.14488

 Excited state symmetry could not be determined.
 Excited State  63:      Singlet-?Sym   16.9173 eV   73.29 nm  f=0.0000  <S**2>=0.000
       7 -> 18        -0.18012
       8 -> 19        -0.18012
      10 -> 25         0.43287
      11 -> 26         0.43287

 Excited State  64:      Singlet-A1    16.9423 eV   73.18 nm  f=0.0698  <S**2>=0.000
       7 -> 19        -0.10908
       8 -> 18         0.10908
       9 -> 20        -0.15661
       9 -> 23         0.36276
       9 -> 24         0.31066
       9 -> 27         0.11463
      10 -> 26         0.28682
      11 -> 25        -0.28682

 Excited State  65:      Singlet-A1    17.1621 eV   72.24 nm  f=0.0278  <S**2>=0.000
       7 -> 19         0.17355
       8 -> 18        -0.17355
       9 -> 23         0.19364
       9 -> 24         0.36251
      10 -> 26        -0.23016
      10 -> 29         0.18752
      11 -> 25         0.23015
      11 -> 28        -0.18752

 Excited State  66:      Singlet-E     17.2053 eV   72.06 nm  f=0.1033  <S**2>=0.000
       6 -> 17         0.17234
       6 -> 19         0.51895
       9 -> 26         0.20339
      10 -> 26         0.22320
      11 -> 25         0.22320

 Excited State  67:      Singlet-E     17.2053 eV   72.06 nm  f=0.1033  <S**2>=0.000
       6 -> 16         0.17234
       6 -> 18         0.51895
       9 -> 25         0.20339
      10 -> 25        -0.22320
      11 -> 26         0.22320

 Excited state symmetry could not be determined.
 Excited State  68:      Singlet-?Sym   17.3943 eV   71.28 nm  f=0.3357  <S**2>=0.000
       6 -> 16         0.30807
       6 -> 18         0.23344
      10 -> 25         0.37470
      11 -> 26        -0.37470

 Excited state symmetry could not be determined.
 Excited State  69:      Singlet-?Sym   17.3943 eV   71.28 nm  f=0.3357  <S**2>=0.000
       6 -> 17        -0.30807
       6 -> 19        -0.23344
      10 -> 26         0.37470
      11 -> 25         0.37470

 Excited state symmetry could not be determined.
 Excited State  70:      Singlet-?Sym   17.8870 eV   69.32 nm  f=0.0680  <S**2>=0.000
       6 -> 19        -0.11045
       7 -> 22        -0.21928
       8 -> 21        -0.21928
      10 -> 29         0.38387

 The electronic state is 1-A1.
 Alpha  occ. eigenvalues --  -14.21438 -10.17643 -10.16594  -1.04310  -0.92200
 Alpha  occ. eigenvalues --   -0.64452  -0.59801  -0.59801  -0.48845  -0.45884
 Alpha  occ. eigenvalues --   -0.45884
 Alpha virt. eigenvalues --    0.07626   0.12353   0.12353   0.13588   0.18900
 Alpha virt. eigenvalues --    0.18900   0.20980   0.20980   0.22529   0.29625
 Alpha virt. eigenvalues --    0.29625   0.31369   0.33113   0.38108   0.38108

 Mulliken charges:
               1
     1  C    0.184701
     2  C   -0.326864
     3  N   -0.042974
     4  H    0.061712
     5  H    0.061712
     6  H    0.061712
 Sum of Mulliken charges =   0.00000

 Dipole moment (field-independent basis, Debye):
    X=             -0.0000    Y=              0.0000    Z=             -4.0383  Tot=              4.0383
 Quadrupole moment (field-independent basis, Debye-Ang):
   XX=            -17.4710   YY=            -17.4710   ZZ=            -20.9116
   XY=             -0.0000   XZ=              0.0000   YZ=             -0.0000

 Normal termination of Gaussian 16 at Mon Mar 21 20:17:29 2022.
