 Gaussian 16, Revision C.01,
 Gaussian 16:  EM64L-G16RevC.01  3-Jul-2019

 ----------------------------------------------------------------------
 #P TD(Nstates=10000) lc-whpbe/Gen SCF(maxcycles=100) Int(Grid=ultrafin
 e)
 ----------------------------------------------------------------------

 ---------------------
 xGDB7_00001_tier4.com
 ---------------------
 Symbolic Z-matrix:
 Charge =  0 Multiplicity = 1

                         Standard orientation:
 ---------------------------------------------------------------------
 Center     Atomic      Atomic             Coordinates (Angstroms)
 Number     Number       Type             X           Y           Z
 ---------------------------------------------------------------------
      1          6           0        0.000000    0.000000   -0.524273
      2          8           0        0.000000    0.000000    0.670793
      3          1           0        0.000000    0.939221   -1.110351
      4          1           0       -0.000000   -0.939221   -1.110351
 ---------------------------------------------------------------------

 SCF Done:  E(RLC-wHPBE) =  -114.351942669     A.U. after   12 cycles

 Excitation energies and oscillator strengths:

 Excited State   1:      Singlet-A2     4.0009 eV  309.89 nm  f=0.0000  <S**2>=0.000
       8 ->  9         0.70121
 This state for optimization and/or second-order correction.
 Total Energy, E(TD-HF/TD-DFT) =  -114.204912876
 Copying the excited state density for this state as the 1-particle RhoCI density.

 Excited State   2:      Singlet-B2     7.9088 eV  156.77 nm  f=0.0223  <S**2>=0.000
       8 -> 10         0.68283
       8 -> 14         0.11877

 Excited State   3:      Singlet-B2     9.3351 eV  132.81 nm  f=0.0748  <S**2>=0.000
       8 -> 10        -0.12064
       8 -> 12         0.65177
       8 -> 14         0.21842

 Excited State   4:      Singlet-B1     9.3800 eV  132.18 nm  f=0.0004  <S**2>=0.000
       6 ->  9         0.69858

 Excited State   5:      Singlet-A1     9.4037 eV  131.85 nm  f=0.1281  <S**2>=0.000
       8 -> 11         0.69426

 Excited State   6:      Singlet-A2     9.8428 eV  125.96 nm  f=0.0000  <S**2>=0.000
       8 -> 13         0.69502

 Excited State   7:      Singlet-A1     9.9616 eV  124.46 nm  f=0.0996  <S**2>=0.000
       7 ->  9         0.65247
       8 -> 16        -0.21793

 Excited State   8:      Singlet-A2    10.4380 eV  118.78 nm  f=0.0000  <S**2>=0.000
       5 ->  9         0.69535

 Excited State   9:      Singlet-B2    10.6201 eV  116.74 nm  f=0.0288  <S**2>=0.000
       8 -> 12        -0.22693
       8 -> 14         0.64431
       8 -> 15         0.10931

 Excited State  10:      Singlet-B2    11.2511 eV  110.20 nm  f=0.0375  <S**2>=0.000
       8 -> 15         0.68751

 Excited State  11:      Singlet-B1    11.8917 eV  104.26 nm  f=0.0618  <S**2>=0.000
       7 -> 10         0.67552
       7 -> 12         0.10387
       7 -> 14         0.13986

 Excited State  12:      Singlet-A1    12.2790 eV  100.97 nm  f=0.2409  <S**2>=0.000
       6 -> 10        -0.11489
       7 ->  9         0.19219
       7 -> 13        -0.13937
       8 -> 16         0.64299

 Excited State  13:      Singlet-B1    12.3875 eV  100.09 nm  f=0.0196  <S**2>=0.000
       8 -> 17         0.69146
       8 -> 24         0.11704

 Excited State  14:      Singlet-A2    13.3106 eV   93.15 nm  f=0.0000  <S**2>=0.000
       7 -> 11         0.69630
       7 -> 23        -0.10472

 Excited State  15:      Singlet-B1    13.3586 eV   92.81 nm  f=0.0496  <S**2>=0.000
       4 ->  9        -0.10188
       7 -> 10        -0.12071
       7 -> 12         0.65596
       7 -> 14         0.15203

 Excited State  16:      Singlet-A2    13.3737 eV   92.71 nm  f=0.0000  <S**2>=0.000
       8 -> 18         0.68829

 Excited State  17:      Singlet-A1    13.4109 eV   92.45 nm  f=0.0073  <S**2>=0.000
       6 -> 10         0.63982
       6 -> 12         0.15503
       6 -> 14         0.12530
       7 -> 13        -0.18461

 Excited State  18:      Singlet-A1    14.0089 eV   88.50 nm  f=0.0002  <S**2>=0.000
       6 -> 10         0.14663
       7 -> 13         0.65145
       8 -> 16         0.14648

 Excited State  19:      Singlet-B2    14.2607 eV   86.94 nm  f=0.2161  <S**2>=0.000
       5 -> 10         0.65714
       6 -> 11        -0.19383

 Excited State  20:      Singlet-A1    14.4107 eV   86.04 nm  f=0.2232  <S**2>=0.000
       6 -> 10        -0.17172
       6 -> 12         0.66844

 Excited State  21:      Singlet-B1    14.5701 eV   85.09 nm  f=0.0028  <S**2>=0.000
       4 ->  9         0.15514
       7 -> 10        -0.13188
       7 -> 14         0.56687
       7 -> 15         0.33843

 Excited State  22:      Singlet-B2    14.5786 eV   85.05 nm  f=0.0172  <S**2>=0.000
       5 -> 10         0.18988
       6 -> 11         0.67036

 Excited State  23:      Singlet-B1    14.8156 eV   83.68 nm  f=0.0002  <S**2>=0.000
       4 ->  9         0.35703
       7 -> 12         0.20266
       7 -> 14        -0.33392
       7 -> 15         0.44896

 Excited State  24:      Singlet-B1    14.9068 eV   83.17 nm  f=0.0291  <S**2>=0.000
       6 -> 13         0.68985

 Excited State  25:      Singlet-B2    14.9917 eV   82.70 nm  f=0.0085  <S**2>=0.000
       5 -> 12        -0.18826
       5 -> 14        -0.13962
       8 -> 19         0.63724
       8 -> 21        -0.10878

 Excited State  26:      Singlet-A1    15.3853 eV   80.59 nm  f=0.2039  <S**2>=0.000
       6 -> 14         0.10683
       8 -> 20         0.67805

 Excited State  27:      Singlet-A2    15.4218 eV   80.40 nm  f=0.0000  <S**2>=0.000
       7 -> 16         0.69074

 Excited State  28:      Singlet-B1    15.7585 eV   78.68 nm  f=0.2716  <S**2>=0.000
       4 ->  9         0.55061
       5 -> 17        -0.10890
       7 -> 15        -0.39181
       8 -> 24        -0.11363

 Excited State  29:      Singlet-B2    15.7693 eV   78.62 nm  f=0.0745  <S**2>=0.000
       5 -> 12         0.12251
       7 -> 17        -0.14639
       8 -> 19         0.18455
       8 -> 21         0.61287
       8 -> 22        -0.13619

 Excited State  30:      Singlet-A1    15.8691 eV   78.13 nm  f=0.0336  <S**2>=0.000
       5 -> 11        -0.18718
       6 -> 10        -0.10269
       6 -> 14         0.63746

 Excited State  31:      Singlet-B2    16.0710 eV   77.15 nm  f=0.0004  <S**2>=0.000
       5 -> 12         0.53584
       5 -> 14         0.26903
       5 -> 15        -0.16120
       8 -> 19         0.17815
       8 -> 21        -0.16104
       8 -> 22         0.17193

 Excited State  32:      Singlet-A1    16.2954 eV   76.09 nm  f=0.0094  <S**2>=0.000
       5 -> 11         0.13454
       6 -> 15         0.67152

 Excited State  33:      Singlet-B2    16.3377 eV   75.89 nm  f=0.0359  <S**2>=0.000
       5 -> 14        -0.13512
       5 -> 15        -0.16265
       6 -> 16         0.12168
       7 -> 17         0.61647
       7 -> 24         0.12228
       8 -> 21         0.16172
       8 -> 22         0.10792

 Excited State  34:      Singlet-A1    16.3953 eV   75.62 nm  f=0.0060  <S**2>=0.000
       5 -> 11         0.61114
       5 -> 16         0.10898
       6 -> 14         0.15427
       6 -> 15        -0.11964
       8 -> 23        -0.19740

 Excited State  35:      Singlet-A2    16.6732 eV   74.36 nm  f=0.0000  <S**2>=0.000
       5 -> 13         0.67780
       5 -> 18         0.11281
       8 -> 18         0.10700

 Excited State  36:      Singlet-B2    16.7260 eV   74.13 nm  f=0.0015  <S**2>=0.000
       5 -> 15         0.13687
       6 -> 16         0.62294
       8 -> 21        -0.10341
       8 -> 22        -0.20816

 Excited State  37:      Singlet-B2    16.8314 eV   73.66 nm  f=0.2470  <S**2>=0.000
       5 -> 14        -0.17662
       6 -> 16         0.22447
       7 -> 17        -0.23524
       8 -> 22         0.54612
       8 -> 26        -0.12757

 Excited State  38:      Singlet-A1    17.0914 eV   72.54 nm  f=0.0987  <S**2>=0.000
       5 -> 11         0.16982
       8 -> 20        -0.10250
       8 -> 23         0.64483

 Excited State  39:      Singlet-B1    17.2922 eV   71.70 nm  f=0.2388  <S**2>=0.000
       4 ->  9         0.11022
       5 -> 17         0.11919
       8 -> 17        -0.10926
       8 -> 24         0.66909

 Excited State  40:      Singlet-B2    17.4351 eV   71.11 nm  f=0.2090  <S**2>=0.000
       5 -> 12        -0.20094
       5 -> 14         0.42039
       5 -> 15         0.30643
       7 -> 17         0.10609
       8 -> 21         0.15686
       8 -> 22         0.26944
       8 -> 26         0.23341

 Excited State  41:      Singlet-A1    17.5854 eV   70.50 nm  f=0.0059  <S**2>=0.000
       4 -> 10        -0.10311
       5 -> 11        -0.12244
       5 -> 16         0.24404
       7 -> 18         0.62184

 Excited State  42:      Singlet-A2    17.7460 eV   69.87 nm  f=0.0000  <S**2>=0.000
       6 -> 17         0.67908
       6 -> 24         0.13986

 Excited State  43:      Singlet-B2    17.8072 eV   69.63 nm  f=0.0472  <S**2>=0.000
       5 -> 14        -0.10698
       5 -> 15        -0.29968
       8 -> 26         0.58047
       8 -> 28         0.12230

 Excited State  44:      Singlet-A2    17.8553 eV   69.44 nm  f=0.0000  <S**2>=0.000
       8 -> 25         0.69173

 Excited State  45:      Singlet-A1    18.1268 eV   68.40 nm  f=0.0001  <S**2>=0.000
       4 -> 10         0.58110
       5 -> 16         0.36094

 Excited State  46:      Singlet-B2    18.1868 eV   68.17 nm  f=0.0181  <S**2>=0.000
       5 -> 12         0.30475
       5 -> 14        -0.36133
       5 -> 15         0.45253
       8 -> 26         0.19218

 Excited State  47:      Singlet-A1    18.6055 eV   66.64 nm  f=0.0473  <S**2>=0.000
       4 -> 10        -0.33383
       4 -> 12         0.10543
       5 -> 16         0.50829
       7 -> 18        -0.27367

 Excited State  48:      Singlet-B1    18.6287 eV   66.56 nm  f=0.0918  <S**2>=0.000
       4 -> 13         0.19757
       4 -> 18         0.10204
       5 -> 17         0.32931
       6 -> 18         0.56328

 Excited State  49:      Singlet-B1    18.9315 eV   65.49 nm  f=0.1115  <S**2>=0.000
       5 -> 17         0.53727
       6 -> 18        -0.34779
       7 -> 19        -0.21993

 Excited State  50:      Singlet-B1    19.1151 eV   64.86 nm  f=0.0002  <S**2>=0.000
       5 -> 17         0.19500
       6 -> 18        -0.12212
       7 -> 19         0.64504

 Excited State  51:      Singlet-A2    19.3021 eV   64.23 nm  f=0.0000  <S**2>=0.000
       7 -> 20         0.69609

 Excited State  52:      Singlet-A1    19.5906 eV   63.29 nm  f=0.0765  <S**2>=0.000
       4 -> 12         0.44414
       4 -> 14         0.34640
       5 -> 16        -0.10277
       6 -> 19         0.21809
       8 -> 27         0.27874

 Excited State  53:      Singlet-B1    19.6058 eV   63.24 nm  f=0.0952  <S**2>=0.000
       7 -> 19         0.11333
       7 -> 21         0.64946
       7 -> 22        -0.16393
       7 -> 26        -0.11581

 Excited State  54:      Singlet-A2    19.7487 eV   62.78 nm  f=0.0000  <S**2>=0.000
       5 -> 13        -0.11633
       5 -> 18         0.67653

 Excited State  55:      Singlet-B2    19.8099 eV   62.59 nm  f=0.0021  <S**2>=0.000
       4 -> 11         0.64491
       4 -> 16         0.20039
       6 -> 16        -0.12233

 Excited State  56:      Singlet-A1    20.1915 eV   61.40 nm  f=0.0476  <S**2>=0.000
       4 -> 12        -0.27290
       4 -> 14        -0.24129
       6 -> 19         0.30295
       6 -> 26         0.13756
       8 -> 27         0.46608

 Excited State  57:      Singlet-B2    20.5706 eV   60.27 nm  f=0.0287  <S**2>=0.000
       4 -> 16         0.17447
       6 -> 20         0.66631

 Excited State  58:      Singlet-B1    20.5962 eV   60.20 nm  f=0.0004  <S**2>=0.000
       4 -> 13         0.64365
       4 -> 18         0.10654
       5 -> 17        -0.12145
       6 -> 18        -0.16690
       7 -> 21         0.10472
       7 -> 22         0.11259

 Excited State  59:      Singlet-A1    20.6331 eV   60.09 nm  f=0.0106  <S**2>=0.000
       4 -> 12        -0.22728
       4 -> 14         0.33891
       4 -> 15         0.48944
       5 -> 20         0.13813
       6 -> 19         0.19442
       6 -> 22         0.10850

 Excited State  60:      Singlet-A2    20.7994 eV   59.61 nm  f=0.0000  <S**2>=0.000
       7 -> 11         0.10178
       7 -> 16         0.10406
       7 -> 23         0.68491

 Excited State  61:      Singlet-B2    20.9962 eV   59.05 nm  f=0.0073  <S**2>=0.000
       8 -> 26        -0.13811
       8 -> 28         0.59921
       8 -> 30         0.29594

 Excited State  62:      Singlet-A1    21.0090 eV   59.01 nm  f=0.0458  <S**2>=0.000
       4 -> 15        -0.13019
       6 -> 19         0.50197
       6 -> 21         0.27007
       6 -> 22        -0.12361
       7 -> 25         0.21357
       8 -> 27        -0.25426

 Excited State  63:      Singlet-B1    21.0813 eV   58.81 nm  f=0.0897  <S**2>=0.000
       4 -> 13        -0.11262
       7 -> 21         0.13397
       7 -> 22         0.64710
       7 -> 26        -0.14170

 Excited State  64:      Singlet-A1    21.2455 eV   58.36 nm  f=0.0393  <S**2>=0.000
       4 -> 15         0.15913
       6 -> 19        -0.11824
       6 -> 21         0.56265
       6 -> 22        -0.18783
       7 -> 25        -0.19656
       8 -> 27         0.17692

 Excited State  65:      Singlet-B2    21.2661 eV   58.30 nm  f=0.0408  <S**2>=0.000
       7 -> 17        -0.13012
       7 -> 24         0.66397

 Excited State  66:      Singlet-B2    21.5939 eV   57.42 nm  f=0.0630  <S**2>=0.000
       4 -> 16        -0.13439
       5 -> 19         0.65299
       5 -> 21         0.10213

 Excited State  67:      Singlet-A1    21.7081 eV   57.11 nm  f=0.0005  <S**2>=0.000
       4 -> 15        -0.19982
       5 -> 20         0.56748
       8 -> 29        -0.31963

 Excited State  68:      Singlet-B1    21.7581 eV   56.98 nm  f=0.0051  <S**2>=0.000
       7 -> 21         0.15384
       7 -> 26         0.64345
       7 -> 28         0.15472

 Excited State  69:      Singlet-B2    21.8112 eV   56.84 nm  f=0.0407  <S**2>=0.000
       4 -> 11        -0.16649
       4 -> 16         0.54083
       5 -> 19         0.12471
       5 -> 21         0.11054
       5 -> 22        -0.13078
       6 -> 20        -0.14226
       8 -> 28        -0.17952
       8 -> 30         0.23348

 Excited State  70:      Singlet-A1    21.8358 eV   56.78 nm  f=0.0064  <S**2>=0.000
       4 -> 12         0.24368
       4 -> 14        -0.26335
       4 -> 15         0.27492
       6 -> 22         0.11116
       6 -> 26         0.11240
       7 -> 25         0.44828
       8 -> 29        -0.17154

 Excited State  71:      Singlet-B2    21.9572 eV   56.47 nm  f=0.0284  <S**2>=0.000
       4 -> 16        -0.18419
       5 -> 21        -0.19604
       6 -> 23         0.28251
       8 -> 28        -0.21098
       8 -> 30         0.50841

 Excited State  72:      Singlet-A2    22.0901 eV   56.13 nm  f=0.0000  <S**2>=0.000
       4 -> 17         0.41992
       6 -> 24        -0.27418
       8 -> 31         0.48095

 Excited State  73:      Singlet-A2    22.1238 eV   56.04 nm  f=0.0000  <S**2>=0.000
       4 -> 17        -0.36807
       5 -> 18         0.10082
       6 -> 24         0.29364
       8 -> 31         0.50369

 Excited State  74:      Singlet-A1    22.1711 eV   55.92 nm  f=0.0008  <S**2>=0.000
       4 -> 12        -0.26640
       4 -> 14         0.32366
       4 -> 15        -0.20930
       5 -> 20        -0.10385
       6 -> 19        -0.16330
       6 -> 21         0.11979
       6 -> 22        -0.12384
       6 -> 26         0.14205
       7 -> 25         0.39524
       8 -> 27         0.15370

 Excited State  75:      Singlet-B2    22.2105 eV   55.82 nm  f=0.0029  <S**2>=0.000
       4 -> 16        -0.17203
       5 -> 19        -0.12171
       5 -> 21         0.58092
       5 -> 22        -0.22982
       8 -> 32        -0.11081

 Excited State  76:      Singlet-A1    22.2974 eV   55.60 nm  f=0.0140  <S**2>=0.000
       4 -> 15        -0.17215
       6 -> 21         0.25184
       6 -> 22         0.59285
       8 -> 29        -0.12347

 Excited State  77:      Singlet-B2    22.4036 eV   55.34 nm  f=0.0554  <S**2>=0.000
       4 -> 16         0.10737
       6 -> 23         0.59881
       8 -> 30        -0.20630
       8 -> 32         0.15722

 Excited State  78:      Singlet-A1    22.7365 eV   54.53 nm  f=0.0908  <S**2>=0.000
       5 -> 20         0.33295
       6 -> 22         0.14529
       7 -> 25         0.14628
       8 -> 29         0.56875

 Excited State  79:      Singlet-A2    22.7965 eV   54.39 nm  f=0.0000  <S**2>=0.000
       4 -> 17         0.39835
       6 -> 17        -0.14556
       6 -> 24         0.54976

 Excited State  80:      Singlet-B1    23.0922 eV   53.69 nm  f=0.0038  <S**2>=0.000
       4 -> 18        -0.25697
       5 -> 24         0.13701
       6 -> 25         0.63108

 Excited State  81:      Singlet-B2    23.3463 eV   53.11 nm  f=0.3082  <S**2>=0.000
       5 -> 21         0.25986
       5 -> 22         0.48127
       5 -> 26         0.11310
       8 -> 30         0.10865
       8 -> 32         0.35580

 Excited State  82:      Singlet-A2    23.5044 eV   52.75 nm  f=0.0000  <S**2>=0.000
       7 -> 27         0.69105

 Excited State  83:      Singlet-B1    23.5059 eV   52.75 nm  f=0.0000  <S**2>=0.000
       4 -> 18         0.58218
       5 -> 24        -0.20318
       6 -> 25         0.29712

 Excited State  84:      Singlet-A1    23.7809 eV   52.14 nm  f=0.2052  <S**2>=0.000
       5 -> 23         0.62524
       6 -> 26        -0.19133
       6 -> 28        -0.12226

 Excited State  85:      Singlet-B2    23.8121 eV   52.07 nm  f=0.0568  <S**2>=0.000
       5 -> 22        -0.40083
       8 -> 32         0.54504

 Excited State  86:      Singlet-B1    23.8744 eV   51.93 nm  f=0.1433  <S**2>=0.000
       4 -> 18         0.22802
       5 -> 24         0.61927
       8 -> 33        -0.19036

 Excited State  87:      Singlet-A1    24.2164 eV   51.20 nm  f=0.3552  <S**2>=0.000
       4 -> 19         0.14010
       4 -> 21         0.12423
       5 -> 23         0.22189
       6 -> 26         0.55953
       6 -> 28         0.13544
       8 -> 27        -0.16040

 Excited State  88:      Singlet-A2    24.3384 eV   50.94 nm  f=0.0000  <S**2>=0.000
       5 -> 25         0.68418
       8 -> 34         0.10726

 Excited State  89:      Singlet-B2    24.4772 eV   50.65 nm  f=0.0786  <S**2>=0.000
       5 -> 26         0.59078
       5 -> 28         0.10799
       6 -> 27         0.30479

 Excited State  90:      Singlet-B1    24.8379 eV   49.92 nm  f=0.0007  <S**2>=0.000
       3 ->  9        -0.20592
       7 -> 26        -0.16077
       7 -> 28         0.56736
       7 -> 30         0.24855
       8 -> 33        -0.18045

 Excited State  91:      Singlet-B2    24.9446 eV   49.70 nm  f=0.0891  <S**2>=0.000
       4 -> 20        -0.10162
       4 -> 23        -0.10680
       5 -> 26        -0.27508
       6 -> 27         0.58848
       6 -> 29         0.11344

 Excited State  92:      Singlet-B1    25.0647 eV   49.47 nm  f=0.0442  <S**2>=0.000
       3 ->  9        -0.18921
       5 -> 24         0.19254
       7 -> 28         0.16976
       8 -> 33         0.61139

 Excited State  93:      Singlet-A1    25.4475 eV   48.72 nm  f=0.0165  <S**2>=0.000
       4 -> 19         0.61818
       5 -> 27        -0.23187

 Excited State  94:      Singlet-B2    25.5442 eV   48.54 nm  f=0.0163  <S**2>=0.000
       4 -> 20         0.65930
       6 -> 27         0.10245
       6 -> 29         0.16403

 Excited State  95:      Singlet-A2    25.6079 eV   48.42 nm  f=0.0000  <S**2>=0.000
       5 -> 25        -0.10464
       8 -> 34         0.68431

 Excited State  96:      Singlet-B1    25.6937 eV   48.25 nm  f=0.0901  <S**2>=0.000
       3 ->  9        -0.20777
       6 -> 31         0.10553
       7 -> 28        -0.29548
       7 -> 30         0.56903
       7 -> 32         0.12232

 Excited State  97:      Singlet-A1    25.8594 eV   47.95 nm  f=0.0839  <S**2>=0.000
       4 -> 21        -0.18518
       4 -> 22         0.14523
       6 -> 28        -0.40819
       6 -> 30        -0.26018
       7 -> 31         0.42531

 Excited State  98:      Singlet-A2    26.0377 eV   47.62 nm  f=0.0000  <S**2>=0.000
       7 -> 29         0.69842

 Excited State  99:      Singlet-A1    26.1938 eV   47.33 nm  f=0.0011  <S**2>=0.000
       4 -> 19         0.14385
       4 -> 21         0.53915
       4 -> 22        -0.19512
       5 -> 27         0.16214
       6 -> 26        -0.10280
       6 -> 28        -0.14314
       6 -> 32         0.11276
       7 -> 31         0.21969

 Excited State 100:      Singlet-B1    26.1945 eV   47.33 nm  f=0.0076  <S**2>=0.000
       3 ->  9         0.58789
       6 -> 31         0.13956
       7 -> 28         0.17274
       7 -> 30         0.22638
       7 -> 32         0.13529
       8 -> 33         0.14770

 Excited State 101:      Singlet-A1    26.6491 eV   46.52 nm  f=0.0091  <S**2>=0.000
       4 -> 19         0.15263
       4 -> 22         0.24992
       5 -> 27         0.47702
       6 -> 28        -0.28376
       6 -> 30         0.18963
       7 -> 31        -0.21377

 Excited State 102:      Singlet-A1    26.8167 eV   46.23 nm  f=0.0380  <S**2>=0.000
       4 -> 22         0.26687
       5 -> 27         0.28465
       6 -> 26        -0.16363
       6 -> 28         0.39361
       6 -> 32        -0.13643
       7 -> 31         0.33409

 Excited State 103:      Singlet-A1    26.9520 eV   46.00 nm  f=0.0002  <S**2>=0.000
       4 -> 19        -0.13239
       4 -> 21         0.32592
       4 -> 22         0.49397
       5 -> 27        -0.28262
       6 -> 30         0.10748
       6 -> 32        -0.11834

 Excited State 104:      Singlet-B1    26.9524 eV   46.00 nm  f=0.0446  <S**2>=0.000
       6 -> 31         0.51202
       7 -> 32        -0.46632

 Excited State 105:      Singlet-B2    26.9854 eV   45.94 nm  f=0.0091  <S**2>=0.000
       4 -> 23         0.67233

 Excited State 106:      Singlet-B2    27.2608 eV   45.48 nm  f=0.1644  <S**2>=0.000
       4 -> 20        -0.13985
       5 -> 28         0.19256
       6 -> 29         0.63367

 Excited State 107:      Singlet-A2    27.3946 eV   45.26 nm  f=0.0000  <S**2>=0.000
       4 -> 24         0.68644
       6 -> 33         0.11861

 Excited State 108:      Singlet-B1    27.4668 eV   45.14 nm  f=0.4325  <S**2>=0.000
       3 ->  9        -0.10090
       4 -> 25        -0.14742
       6 -> 31         0.41443

 The electronic state is 1-A1.
 Alpha  occ. eigenvalues --  -19.00238 -10.22656  -1.19374  -0.76973  -0.63620
 Alpha  occ. eigenvalues --   -0.58326  -0.53959  -0.39215
 Alpha virt. eigenvalues --    0.04494   0.08832   0.15104   0.16204   0.17212
 Alpha virt. eigenvalues --    0.20094   0.23015   0.23088   0.28302   0.31435
 Alpha virt. eigenvalues --    0.36791   0.38132   0.40198   0.43788   0.44446

 Mulliken charges:
               1
     1  C    0.431577
     2  O   -0.293230
     3  H   -0.069174
     4  H   -0.069174
 Sum of Mulliken charges =  -0.00000

 Dipole moment (field-independent basis, Debye):
    X=              0.0000    Y=             -0.0000    Z=             -2.4918  Tot=              2.4918
 Quadrupole moment (field-independent basis, Debye-Ang):
   XX=            -11.6439   YY=            -11.5804   ZZ=            -12.2574
   XY=              0.0000   XZ=              0.0000   YZ=              0.0000

 Normal termination of Gaussian 16 at Mon Mar 21 04:11:02 2022.
