 Gaussian 16, Revision C.01,
 Gaussian 16:  EM64L-G16RevC.01  3-Jul-2019

 ----------------------------------------------------------------------
 #P TD(Nstates=10000) lc-whpbe/Gen SCF(maxcycles=100) Int(Grid=ultrafin
 e)
 ----------------------------------------------------------------------

 ---------------------
 xGDB7_00001_tier4.com
 ---------------------
 Symbolic Z-matrix:
 Charge =  0 Multiplicity = 1

                         Standard orientation:
 ---------------------------------------------------------------------
 Center     Atomic      Atomic             Coordinates (Angstroms)
 Number     Number       Type             X           Y           Z
 ---------------------------------------------------------------------
      1          9           0        0.000000    0.000000    0.091801
      2          1           0        0.000000    0.000000   -0.826212
 ---------------------------------------------------------------------

 SCF Done:  E(RLC-wHPBE) =  -100.325938369     A.U. after   10 cycles

 Excitation energies and oscillator strengths:

 Excited state symmetry could not be determined.
 Excited State   1:      Singlet-?Sym   10.4081 eV  119.12 nm  f=0.0341  <S**2>=0.000
       4 ->  6        -0.42949
       5 ->  6         0.54411
 This state for optimization and/or second-order correction.
 Total Energy, E(TD-HF/TD-DFT) =  -99.9434469114
 Copying the excited state density for this state as the 1-particle RhoCI density.

 Excited state symmetry could not be determined.
 Excited State   2:      Singlet-?Sym   10.4081 eV  119.12 nm  f=0.0341  <S**2>=0.000
       4 ->  6         0.54411
       5 ->  6         0.42949

 Excited State   3:      Singlet-SG    14.2701 eV   86.88 nm  f=0.1317  <S**2>=0.000
       3 ->  6         0.62815
       4 ->  8         0.20929
       5 ->  9         0.20929

 Excited state symmetry could not be determined.
 Excited State   4:      Singlet-?Sym   14.3108 eV   86.64 nm  f=0.0000  <S**2>=0.000
       4 ->  9        -0.49420
       5 ->  8         0.49420

 Excited state symmetry could not be determined.
 Excited State   5:      Singlet-?Sym   14.3221 eV   86.57 nm  f=0.0237  <S**2>=0.000
       4 ->  7        -0.40650
       4 -> 10        -0.11080
       5 ->  7         0.54344
       5 -> 10         0.14813

 Excited state symmetry could not be determined.
 Excited State   6:      Singlet-?Sym   14.3221 eV   86.57 nm  f=0.0237  <S**2>=0.000
       4 ->  7         0.54344
       4 -> 10         0.14813
       5 ->  7         0.40650
       5 -> 10         0.11080

 Excited state symmetry could not be determined.
 Excited State   7:      Singlet-?Sym   14.3626 eV   86.32 nm  f=0.0000  <S**2>=0.000
       4 ->  9         0.49494
       5 ->  8         0.49494

 Excited state symmetry could not be determined.
 Excited State   8:      Singlet-?Sym   14.3626 eV   86.32 nm  f=0.0000  <S**2>=0.000
       4 ->  8        -0.49494
       5 ->  9         0.49494

 Excited state symmetry could not be determined.
 Excited State   9:      Singlet-?Sym   15.9994 eV   77.49 nm  f=0.0163  <S**2>=0.000
       3 ->  6        -0.25894
       3 ->  7        -0.19184
       3 -> 10        -0.12448
       4 ->  8         0.43026
       5 ->  9         0.43026

 Excited state symmetry could not be determined.
 Excited State  10:      Singlet-?Sym   16.1935 eV   76.56 nm  f=0.0744  <S**2>=0.000
       5 ->  7        -0.17526
       5 -> 10         0.67100

 Excited state symmetry could not be determined.
 Excited State  11:      Singlet-?Sym   16.1935 eV   76.56 nm  f=0.0744  <S**2>=0.000
       4 ->  7        -0.17526
       4 -> 10         0.67100

 Excited state symmetry could not be determined.
 Excited State  12:      Singlet-?Sym   17.0852 eV   72.57 nm  f=0.0000  <S**2>=0.000
       4 -> 12        -0.49345
       5 -> 11         0.49345

 Excited state symmetry could not be determined.
 Excited State  13:      Singlet-?Sym   17.0852 eV   72.57 nm  f=0.0000  <S**2>=0.000
       4 -> 11         0.49345
       5 -> 12         0.49345

 Excited state symmetry could not be determined.
 Excited State  14:      Singlet-?Sym   17.1517 eV   72.29 nm  f=0.0000  <S**2>=0.000
       4 -> 11         0.49282
       5 -> 12        -0.49282

 Excited state symmetry could not be determined.
 Excited State  15:      Singlet-?Sym   17.3056 eV   71.64 nm  f=0.2140  <S**2>=0.000
       3 ->  7        -0.13494
       3 -> 10        -0.13887
       4 -> 12         0.47523
       5 -> 11         0.47523

 Excited state symmetry could not be determined.
 Excited State  16:      Singlet-?Sym   18.0904 eV   68.54 nm  f=0.0000  <S**2>=0.000
       3 ->  8         0.22251
       3 ->  9         0.66271

 Excited state symmetry could not be determined.
 Excited State  17:      Singlet-?Sym   18.0904 eV   68.54 nm  f=0.0000  <S**2>=0.000
       3 ->  8         0.66271
       3 ->  9        -0.22251

 Excited State  18:      Singlet-SG    18.5753 eV   66.75 nm  f=0.0269  <S**2>=0.000
       3 ->  6        -0.15534
       3 ->  7         0.66134
       4 ->  8         0.10858
       5 ->  9         0.10858

 Excited state symmetry could not be determined.
 Excited State  19:      Singlet-?Sym   19.5805 eV   63.32 nm  f=0.0164  <S**2>=0.000
       4 -> 13        -0.20346
       5 -> 13         0.66436

 Excited state symmetry could not be determined.
 Excited State  20:      Singlet-?Sym   19.5805 eV   63.32 nm  f=0.0164  <S**2>=0.000
       4 -> 13         0.66436
       5 -> 13         0.20346

 Excited state symmetry could not be determined.
 Excited State  21:      Singlet-?Sym   20.8607 eV   59.43 nm  f=0.0746  <S**2>=0.000
       3 -> 11         0.53444
       3 -> 12         0.44494

 Excited state symmetry could not be determined.
 Excited State  22:      Singlet-?Sym   20.8607 eV   59.43 nm  f=0.0746  <S**2>=0.000
       3 -> 11        -0.44494
       3 -> 12         0.53444

 Excited State  23:      Singlet-SG    20.9660 eV   59.14 nm  f=0.1241  <S**2>=0.000
       3 -> 10         0.66273
       3 -> 13         0.16448

 Excited State  24:      Singlet-SG    23.9824 eV   51.70 nm  f=0.0731  <S**2>=0.000
       3 -> 10        -0.14253
       3 -> 13         0.67549

 Excited state symmetry could not be determined.
 Excited State  25:      Singlet-?Sym   24.5936 eV   50.41 nm  f=0.0000  <S**2>=0.000
       4 -> 14         0.46483
       4 -> 15         0.18427
       5 -> 14         0.18427
       5 -> 15        -0.46483

 Excited state symmetry could not be determined.
 Excited State  26:      Singlet-?Sym   24.5936 eV   50.41 nm  f=0.0000  <S**2>=0.000
       4 -> 14        -0.18427
       4 -> 15         0.46483
       5 -> 14         0.46483
       5 -> 15         0.18427

 Excited state symmetry could not be determined.
 Excited State  27:      Singlet-?Sym   25.6882 eV   48.27 nm  f=0.4513  <S**2>=0.000
       4 -> 15        -0.47507
       5 -> 14         0.47507
       5 -> 16         0.16902

 Excited state symmetry could not be determined.
 Excited State  28:      Singlet-?Sym   25.6882 eV   48.27 nm  f=0.4513  <S**2>=0.000
       4 -> 14         0.47507
       4 -> 16        -0.16902
       5 -> 15         0.47507

 Excited state symmetry could not be determined.
 Excited State  29:      Singlet-?Sym   27.3433 eV   45.34 nm  f=0.1567  <S**2>=0.000
       4 -> 15         0.11547
       4 -> 16        -0.11077
       5 -> 14        -0.11547
       5 -> 16         0.67058

 Excited state symmetry could not be determined.
 Excited State  30:      Singlet-?Sym   27.3433 eV   45.34 nm  f=0.1567  <S**2>=0.000
       4 -> 14         0.11547
       4 -> 16         0.67058
       5 -> 15         0.11547
       5 -> 16         0.11077

 Excited state symmetry could not be determined.
 Excited State  31:      Singlet-?Sym   28.5402 eV   43.44 nm  f=0.0000  <S**2>=0.000
       3 -> 14         0.70028

 Excited state symmetry could not be determined.
 Excited State  32:      Singlet-?Sym   28.5402 eV   43.44 nm  f=0.0000  <S**2>=0.000
       3 -> 15         0.70028

 Excited state symmetry could not be determined.
 Excited State  33:      Singlet-?Sym   29.2680 eV   42.36 nm  f=0.0000  <S**2>=0.000
       4 -> 17         0.49344
       5 -> 18         0.49344

 Excited state symmetry could not be determined.
 Excited State  34:      Singlet-?Sym   29.2680 eV   42.36 nm  f=0.0000  <S**2>=0.000
       4 -> 18        -0.49344
       5 -> 17         0.49344

 Excited state symmetry could not be determined.
 Excited State  35:      Singlet-?Sym   29.3945 eV   42.18 nm  f=0.0000  <S**2>=0.000
       4 -> 17         0.49827
       5 -> 18        -0.49827

 Excited state symmetry could not be determined.
 Excited State  36:      Singlet-?Sym   29.8685 eV   41.51 nm  f=0.1552  <S**2>=0.000
       3 -> 16         0.32948
       4 -> 18         0.43205
       5 -> 17         0.43205

 Excited State  37:      Singlet-SG    31.5601 eV   39.29 nm  f=0.0893  <S**2>=0.000
       2 ->  6         0.66462
       3 -> 16        -0.20736

 Excited State  38:      Singlet-SG    32.4041 eV   38.26 nm  f=0.5189  <S**2>=0.000
       2 ->  6         0.17847
       3 -> 16         0.58148
       4 -> 18        -0.23961
       5 -> 17        -0.23961

 Excited state symmetry could not be determined.
 Excited State  39:      Singlet-?Sym   33.5520 eV   36.95 nm  f=0.2874  <S**2>=0.000
       2 ->  9        -0.14513
       3 -> 17         0.67447
       3 -> 18         0.12455

 Excited state symmetry could not be determined.
 Excited State  40:      Singlet-?Sym   33.5520 eV   36.95 nm  f=0.2874  <S**2>=0.000
       2 ->  8        -0.14513
       3 -> 17        -0.12455
       3 -> 18         0.67447

 Excited State  41:      Singlet-SG    35.3603 eV   35.06 nm  f=0.0092  <S**2>=0.000
       2 ->  7         0.67408
       2 -> 10         0.17072

 Excited state symmetry could not be determined.
 Excited State  42:      Singlet-?Sym   35.4237 eV   35.00 nm  f=0.0049  <S**2>=0.000
       2 ->  8         0.64534
       2 ->  9        -0.20196
       2 -> 12         0.12348
       3 -> 18         0.13477

 Excited state symmetry could not be determined.
 Excited State  43:      Singlet-?Sym   35.4237 eV   35.00 nm  f=0.0049  <S**2>=0.000
       2 ->  8         0.20196
       2 ->  9         0.64534
       2 -> 11         0.12348
       3 -> 17         0.13477

 Excited State  44:      Singlet-SG    37.0449 eV   33.47 nm  f=0.0112  <S**2>=0.000
       2 ->  7        -0.16873
       2 -> 10         0.68174

 Excited state symmetry could not be determined.
 Excited State  45:      Singlet-?Sym   37.5222 eV   33.04 nm  f=0.0005  <S**2>=0.000
       2 -> 11        -0.35513
       4 -> 19         0.11901
       5 -> 19         0.58929

 Excited state symmetry could not be determined.
 Excited State  46:      Singlet-?Sym   37.5222 eV   33.04 nm  f=0.0005  <S**2>=0.000
       2 -> 12        -0.35513
       4 -> 19         0.58929
       5 -> 19        -0.11901

 Excited state symmetry could not be determined.
 Excited State  47:      Singlet-?Sym   37.8615 eV   32.75 nm  f=0.0085  <S**2>=0.000
       2 ->  9        -0.10453
       2 -> 11         0.58938
       5 -> 19         0.36894

 Excited state symmetry could not be determined.
 Excited State  48:      Singlet-?Sym   37.8615 eV   32.75 nm  f=0.0085  <S**2>=0.000
       2 ->  8        -0.10453
       2 -> 12         0.58938
       4 -> 19         0.36894

 Excited State  49:      Singlet-SG    40.5657 eV   30.56 nm  f=0.0132  <S**2>=0.000
       2 -> 13         0.66711
       3 -> 19         0.20703

 Excited State  50:      Singlet-SG    42.0221 eV   29.50 nm  f=0.0029  <S**2>=0.000
       2 -> 13        -0.18202
       3 -> 19         0.64744
       4 -> 21        -0.15032
       5 -> 20        -0.15032

 Excited state symmetry could not be determined.
 Excited State  51:      Singlet-?Sym   44.7454 eV   27.71 nm  f=0.0000  <S**2>=0.000
       2 -> 14         0.23519
       4 -> 21        -0.47122
       5 -> 20         0.47122

 Excited state symmetry could not be determined.
 Excited State  52:      Singlet-?Sym   44.7454 eV   27.71 nm  f=0.0000  <S**2>=0.000
       2 -> 15        -0.23519
       4 -> 20         0.47122
       5 -> 21         0.47122

 Excited state symmetry could not be determined.
 Excited State  53:      Singlet-?Sym   44.7680 eV   27.69 nm  f=0.0000  <S**2>=0.000
       4 -> 20        -0.49969
       5 -> 21         0.49969

 Excited state symmetry could not be determined.
 Excited State  54:      Singlet-?Sym   45.7617 eV   27.09 nm  f=0.0000  <S**2>=0.000
       2 -> 14         0.66674
       4 -> 21         0.16649
       5 -> 20        -0.16649

 Excited state symmetry could not be determined.
 Excited State  55:      Singlet-?Sym   45.7617 eV   27.09 nm  f=0.0000  <S**2>=0.000
       2 -> 15         0.66674
       4 -> 20         0.16649
       5 -> 21         0.16649

 Excited State  56:      Singlet-SG    48.1542 eV   25.75 nm  f=0.0002  <S**2>=0.000
       2 -> 16         0.69232

 Excited state symmetry could not be determined.
 Excited State  57:      Singlet-?Sym   48.6604 eV   25.48 nm  f=0.0000  <S**2>=0.000
       2 -> 17        -0.10083
       3 -> 20         0.66274
       3 -> 21         0.21586

 Excited state symmetry could not be determined.
 Excited State  58:      Singlet-?Sym   48.6604 eV   25.48 nm  f=0.0000  <S**2>=0.000
       2 -> 18        -0.10083
       3 -> 20        -0.21586
       3 -> 21         0.66274

 Excited state symmetry could not be determined.
 Excited State  59:      Singlet-?Sym   50.1681 eV   24.71 nm  f=0.0183  <S**2>=0.000
       2 -> 17        -0.33976
       2 -> 18        -0.22697
       4 -> 22         0.31903
       5 -> 22         0.47756

 Excited state symmetry could not be determined.
 Excited State  60:      Singlet-?Sym   50.1681 eV   24.71 nm  f=0.0183  <S**2>=0.000
       2 -> 17         0.22697
       2 -> 18        -0.33976
       4 -> 22         0.47756
       5 -> 22        -0.31903

 Excited state symmetry could not be determined.
 Excited State  61:      Singlet-?Sym   50.5537 eV   24.53 nm  f=0.0357  <S**2>=0.000
       2 -> 17         0.41245
       2 -> 18         0.38563
       4 -> 22         0.27883
       5 -> 22         0.29821

 Excited state symmetry could not be determined.
 Excited State  62:      Singlet-?Sym   50.5537 eV   24.53 nm  f=0.0357  <S**2>=0.000
       2 -> 17        -0.38563
       2 -> 18         0.41245
       4 -> 22         0.29821
       5 -> 22        -0.27883

 Excited State  63:      Singlet-SG    51.2770 eV   24.18 nm  f=0.0849  <S**2>=0.000
       2 -> 16        -0.11945
       3 -> 19        -0.12877
       3 -> 22         0.44962
       4 -> 21        -0.34847
       5 -> 20        -0.34847

 Excited State  64:      Singlet-SG    57.8243 eV   21.44 nm  f=0.0085  <S**2>=0.000
       2 -> 19         0.43121
       3 -> 22        -0.41198
       4 -> 21        -0.18174
       4 -> 24        -0.16829
       5 -> 20        -0.18174
       5 -> 23        -0.16829

 Excited state symmetry could not be determined.
 Excited State  65:      Singlet-?Sym   58.6860 eV   21.13 nm  f=0.0000  <S**2>=0.000
       4 -> 23         0.49993
       5 -> 24         0.49993

 Excited state symmetry could not be determined.
 Excited State  66:      Singlet-?Sym   58.6860 eV   21.13 nm  f=0.0000  <S**2>=0.000
       4 -> 24        -0.49993
       5 -> 23         0.49993

 Excited state symmetry could not be determined.
 Excited State  67:      Singlet-?Sym   58.9052 eV   21.05 nm  f=0.0000  <S**2>=0.000
       4 -> 23         0.49993
       5 -> 24        -0.49993

 Excited State  68:      Singlet-SG    59.1637 eV   20.96 nm  f=0.1279  <S**2>=0.000
       2 -> 19         0.48289
       3 -> 22         0.11797
       4 -> 24         0.33685
       5 -> 23         0.33685

 Excited state symmetry could not be determined.
 Excited State  69:      Singlet-?Sym   60.2991 eV   20.56 nm  f=0.0157  <S**2>=0.000
       2 -> 19        -0.26508
       2 -> 22        -0.13381
       3 -> 22        -0.30155
       3 -> 25         0.20487
       4 -> 21        -0.18145
       4 -> 24         0.31659
       5 -> 20        -0.18145
       5 -> 23         0.31659

 Excited state symmetry could not be determined.
 Excited State  70:      Singlet-?Sym   61.7213 eV   20.09 nm  f=0.0088  <S**2>=0.000
       3 -> 23        -0.24954
       4 -> 25         0.16506
       5 -> 25         0.63585

 Excited state symmetry could not be determined.
 Excited State  71:      Singlet-?Sym   61.7213 eV   20.09 nm  f=0.0088  <S**2>=0.000
       3 -> 24        -0.24954
       4 -> 25         0.63585
       5 -> 25        -0.16506

 Excited state symmetry could not be determined.
 Excited State  72:      Singlet-?Sym   62.9621 eV   19.69 nm  f=0.1660  <S**2>=0.000
       3 -> 23         0.65697
       5 -> 25         0.25779

 Excited state symmetry could not be determined.
 Excited State  73:      Singlet-?Sym   62.9621 eV   19.69 nm  f=0.1660  <S**2>=0.000
       3 -> 24         0.65697
       4 -> 25         0.25779

 Excited state symmetry could not be determined.
 Excited State  74:      Singlet-?Sym   66.1971 eV   18.73 nm  f=0.1891  <S**2>=0.000
       2 -> 20         0.42547
       2 -> 21         0.56173

 Excited state symmetry could not be determined.
 Excited State  75:      Singlet-?Sym   66.1971 eV   18.73 nm  f=0.1891  <S**2>=0.000
       2 -> 20         0.56173
       2 -> 21        -0.42547

 Excited State  76:      Singlet-SG    66.4776 eV   18.65 nm  f=0.0215  <S**2>=0.000
       2 -> 22         0.16149
       3 -> 25         0.66286

 Excited state symmetry could not be determined.
 Excited State  77:      Singlet-?Sym   72.9978 eV   16.98 nm  f=0.0171  <S**2>=0.000
       4 -> 26         0.67707
       5 -> 26        -0.19505

 Excited state symmetry could not be determined.
 Excited State  78:      Singlet-?Sym   72.9978 eV   16.98 nm  f=0.0171  <S**2>=0.000
       4 -> 26         0.19505
       5 -> 26         0.67707

 Excited State  79:      Singlet-SG    73.0155 eV   16.98 nm  f=0.0762  <S**2>=0.000
       2 -> 22         0.64350
       2 -> 25         0.13090
       3 -> 25        -0.10937
       3 -> 26        -0.15301

 Excited State  80:      Singlet-SG    77.8265 eV   15.93 nm  f=0.0213  <S**2>=0.000
       2 -> 22         0.12308
       2 -> 25         0.10146
       3 -> 26         0.67950

 Excited state symmetry could not be determined.
 Excited State  81:      Singlet-?Sym   79.5404 eV   15.59 nm  f=0.0011  <S**2>=0.000
       2 -> 23         0.62120
       2 -> 24         0.33691

 Excited state symmetry could not be determined.
 Excited State  82:      Singlet-?Sym   79.5404 eV   15.59 nm  f=0.0011  <S**2>=0.000
       2 -> 23        -0.33691
       2 -> 24         0.62120

 Excited State  83:      Singlet-SG    84.8030 eV   14.62 nm  f=0.0372  <S**2>=0.000
       2 -> 22        -0.10824
       2 -> 25         0.68022

 Excited State  84:      Singlet-SG    94.3145 eV   13.15 nm  f=0.0199  <S**2>=0.000
       2 -> 26         0.70494

 Excited state symmetry could not be determined.
 Excited State  85:      Singlet-?Sym   97.0464 eV   12.78 nm  f=0.0000  <S**2>=0.000
       4 -> 27        -0.28727
       4 -> 28         0.40923
       5 -> 27         0.40923
       5 -> 28         0.28727

 Excited state symmetry could not be determined.
 Excited State  86:      Singlet-?Sym   97.0464 eV   12.78 nm  f=0.0000  <S**2>=0.000
       4 -> 27         0.40923
       4 -> 28         0.28727
       5 -> 27         0.28727
       5 -> 28        -0.40923

 Excited state symmetry could not be determined.
 Excited State  87:      Singlet-?Sym  100.9501 eV   12.28 nm  f=0.0000  <S**2>=0.000
       3 -> 27         0.70677

 Excited state symmetry could not be determined.
 Excited State  88:      Singlet-?Sym  100.9501 eV   12.28 nm  f=0.0000  <S**2>=0.000
       3 -> 28         0.70677

 Excited state symmetry could not be determined.
 Excited State  89:      Singlet-?Sym  101.3804 eV   12.23 nm  f=0.2723  <S**2>=0.000
       3 -> 30         0.35060
       4 -> 27         0.10064
       4 -> 28        -0.41658
       5 -> 27         0.41658
       5 -> 28         0.10064

 Excited state symmetry could not be determined.
 Excited State  90:      Singlet-?Sym  101.3804 eV   12.23 nm  f=0.2723  <S**2>=0.000
       3 -> 29        -0.35060
       4 -> 27         0.41658
       4 -> 28         0.10064
       5 -> 27        -0.10064
       5 -> 28         0.41658

 Excited state symmetry could not be determined.
 Excited State  91:      Singlet-?Sym  101.8138 eV   12.18 nm  f=0.0000  <S**2>=0.000
       4 -> 30        -0.49997
       5 -> 29         0.49997

 Excited state symmetry could not be determined.
 Excited State  92:      Singlet-?Sym  101.8308 eV   12.18 nm  f=0.0000  <S**2>=0.000
       4 -> 29         0.49989
       5 -> 30        -0.49989

 Excited state symmetry could not be determined.
 Excited State  93:      Singlet-?Sym  101.8308 eV   12.18 nm  f=0.0000  <S**2>=0.000
       4 -> 30         0.49989
       5 -> 29         0.49989

 Excited state symmetry could not be determined.
 Excited State  94:      Singlet-?Sym  107.7335 eV   11.51 nm  f=0.5514  <S**2>=0.000
       4 -> 29         0.49219
       5 -> 30         0.49219

 Excited state symmetry could not be determined.
 Excited State  95:      Singlet-?Sym  110.2186 eV   11.25 nm  f=0.6523  <S**2>=0.000
       3 -> 29         0.33799
       3 -> 30         0.50159
       4 -> 27         0.13937
       4 -> 28         0.20683
       5 -> 27        -0.20683
       5 -> 28         0.13937

 Excited state symmetry could not be determined.
 Excited State  96:      Singlet-?Sym  110.2186 eV   11.25 nm  f=0.6523  <S**2>=0.000
       3 -> 29         0.50159
       3 -> 30        -0.33799
       4 -> 27         0.20683
       4 -> 28        -0.13937
       5 -> 27         0.13937
       5 -> 28         0.20683

 Excited state symmetry could not be determined.
 Excited State  97:      Singlet-?Sym  119.3752 eV   10.39 nm  f=0.0000  <S**2>=0.000
       2 -> 28         0.70693

 Excited state symmetry could not be determined.
 Excited State  98:      Singlet-?Sym  119.3752 eV   10.39 nm  f=0.0000  <S**2>=0.000
       2 -> 27         0.70693

 Excited state symmetry could not be determined.
 Excited State  99:      Singlet-?Sym  124.1303 eV    9.99 nm  f=0.0115  <S**2>=0.000
       2 -> 29         0.65573
       2 -> 30        -0.26239

 Excited state symmetry could not be determined.
 Excited State 100:      Singlet-?Sym  124.1303 eV    9.99 nm  f=0.0115  <S**2>=0.000
       2 -> 29         0.26239
       2 -> 30         0.65573

 Excited state symmetry could not be determined.
 Excited State 101:      Singlet-?Sym  127.8742 eV    9.70 nm  f=0.1098  <S**2>=0.000
       4 -> 31        -0.28003
       5 -> 31         0.64244

 Excited state symmetry could not be determined.
 Excited State 102:      Singlet-?Sym  127.8742 eV    9.70 nm  f=0.1098  <S**2>=0.000
       4 -> 31         0.64244
       5 -> 31         0.28003

 Excited State 103:      Singlet-SG   133.0614 eV    9.32 nm  f=0.2296  <S**2>=0.000
       3 -> 31         0.69976

 Excited State 104:      Singlet-SG   148.4424 eV    8.35 nm  f=0.0001  <S**2>=0.000
       2 -> 31         0.70683

 The electronic state is 1-SG.
 Alpha  occ. eigenvalues --  -24.48894  -1.30852  -0.68195  -0.54603  -0.54603
 Alpha virt. eigenvalues --    0.08855   0.21930   0.22964   0.22964   0.31274
 Alpha virt. eigenvalues --    0.32255   0.32255   0.42746   0.67634   0.67634
 Alpha virt. eigenvalues --    0.73982   0.83325   0.83325   1.14937   1.45267

 Mulliken charges:
               1
     1  F   -0.244921
     2  H    0.244921
 Sum of Mulliken charges =   0.00000

 Dipole moment (field-independent basis, Debye):
    X=              0.0000    Y=              0.0000    Z=             -1.8453  Tot=              1.8453
 Quadrupole moment (field-independent basis, Debye-Ang):
   XX=             -5.9226   YY=             -5.9226   ZZ=             -3.8022
   XY=              0.0000   XZ=              0.0000   YZ=              0.0000

 Normal termination of Gaussian 16 at Mon Mar 21 20:16:43 2022.
