 Gaussian 16, Revision C.01,
 Gaussian 16:  EM64L-G16RevC.01  3-Jul-2019

 ----------------------------------------------------------------------
 #P TD(Nstates=10000) lc-whpbe/Gen SCF(maxcycles=100) Int(Grid=ultrafin
 e)
 ----------------------------------------------------------------------

 ---------------------
 xGDB7_00001_tier4.com
 ---------------------
 Symbolic Z-matrix:
 Charge =  0 Multiplicity = 1

                         Standard orientation:
 ---------------------------------------------------------------------
 Center     Atomic      Atomic             Coordinates (Angstroms)
 Number     Number       Type             X           Y           Z
 ---------------------------------------------------------------------
      1          6           0       -1.208422   -0.239069   -0.021917
      2          6           0        0.083893    0.553452    0.046734
      3          8           0        1.233467   -0.256002   -0.105864
      4          1           0       -2.071999    0.425135    0.051700
      5          1           0       -1.270670   -0.957756    0.799731
      6          1           0       -1.270625   -0.788280   -0.962327
      7          1           0        0.130030    1.119197    0.986112
      8          1           0        0.125951    1.277026   -0.768547
      9          1           0        1.236751   -0.913605    0.591341
 ---------------------------------------------------------------------

 SCF Done:  E(RLC-wHPBE) =  -154.851639688     A.U. after   12 cycles

 Excitation energies and oscillator strengths:

 Excited State   1:      Singlet-A      7.5319 eV  164.61 nm  f=0.0100  <S**2>=0.000
      13 -> 14         0.60272
      13 -> 15         0.31532
 This state for optimization and/or second-order correction.
 Total Energy, E(TD-HF/TD-DFT) =  -154.574848028
 Copying the excited state density for this state as the 1-particle RhoCI density.

 Excited State   2:      Singlet-A      9.0048 eV  137.69 nm  f=0.0238  <S**2>=0.000
      12 -> 14         0.17941
      13 -> 14        -0.23205
      13 -> 15         0.48899
      13 -> 16        -0.36182

 Excited State   3:      Singlet-A      9.1915 eV  134.89 nm  f=0.0239  <S**2>=0.000
      12 -> 14         0.60339
      12 -> 15         0.19767
      13 -> 15        -0.11715
      13 -> 16         0.12692

 Excited State   4:      Singlet-A      9.5080 eV  130.40 nm  f=0.0055  <S**2>=0.000
      13 -> 14        -0.18851
      13 -> 15         0.25045
      13 -> 16         0.48089
      13 -> 17         0.25389
      13 -> 18        -0.15131
      13 -> 19        -0.20607

 Excited State   5:      Singlet-A      9.6001 eV  129.15 nm  f=0.0687  <S**2>=0.000
      13 -> 15        -0.16497
      13 -> 16        -0.20263
      13 -> 17         0.62599

 Excited State   6:      Singlet-A     10.1352 eV  122.33 nm  f=0.0139  <S**2>=0.000
      10 -> 14        -0.12351
      11 -> 14         0.27643
      12 -> 14        -0.19088
      12 -> 15         0.53454
      12 -> 16        -0.16725

 Excited State   7:      Singlet-A     10.4740 eV  118.37 nm  f=0.0065  <S**2>=0.000
      13 -> 18         0.45215
      13 -> 19        -0.38806
      13 -> 20         0.12175
      13 -> 21         0.16383
      13 -> 22         0.15138

 Excited State   8:      Singlet-A     10.5745 eV  117.25 nm  f=0.1112  <S**2>=0.000
      10 -> 14        -0.17977
      11 -> 14         0.23189
      12 -> 15        -0.10155
      12 -> 16         0.47344
      12 -> 17         0.11272
      13 -> 18        -0.23932
      13 -> 19        -0.15437
      13 -> 20        -0.13323

 Excited State   9:      Singlet-A     10.6618 eV  116.29 nm  f=0.0692  <S**2>=0.000
      12 -> 16         0.32622
      13 -> 16         0.17918
      13 -> 18         0.26090
      13 -> 19         0.38509
      13 -> 20         0.19964

 Excited State  10:      Singlet-A     10.7689 eV  115.13 nm  f=0.0834  <S**2>=0.000
      10 -> 14         0.22130
      10 -> 15        -0.11876
      11 -> 14         0.52942
      12 -> 15        -0.22308
      12 -> 16        -0.10865
      13 -> 19         0.11650
      13 -> 20         0.10497

 Excited State  11:      Singlet-A     10.9703 eV  113.02 nm  f=0.0380  <S**2>=0.000
      12 -> 16        -0.10743
      12 -> 17         0.50567
      13 -> 18         0.15465
      13 -> 20        -0.37614

 Excited State  12:      Singlet-A     11.0264 eV  112.44 nm  f=0.0131  <S**2>=0.000
      10 -> 14        -0.28643
      12 -> 15        -0.14111
      12 -> 16        -0.18007
      12 -> 17         0.33881
      13 -> 18        -0.15425
      13 -> 20         0.40157

 Excited State  13:      Singlet-A     11.1496 eV  111.20 nm  f=0.0346  <S**2>=0.000
      10 -> 14         0.42927
      11 -> 14        -0.10294
      11 -> 15        -0.23602
      12 -> 15         0.14976
      12 -> 17         0.19664
      12 -> 19        -0.12584
      13 -> 15        -0.11050
      13 -> 18        -0.11124
      13 -> 19        -0.13613
      13 -> 20         0.20405

 Excited State  14:      Singlet-A     11.4317 eV  108.46 nm  f=0.0170  <S**2>=0.000
      10 -> 16        -0.11291
      11 -> 15        -0.11950
      13 -> 19         0.17405
      13 -> 20        -0.10044
      13 -> 21         0.38834
      13 -> 22         0.22544
      13 -> 23         0.32639
      13 -> 25         0.12105
      13 -> 30        -0.12733

 Excited State  15:      Singlet-A     11.5626 eV  107.23 nm  f=0.0038  <S**2>=0.000
      10 -> 15        -0.16729
      11 -> 15         0.16206
      12 -> 18        -0.12362
      13 -> 21        -0.30729
      13 -> 23         0.47187
      13 -> 24        -0.14734
      13 -> 25        -0.11319

 Excited State  16:      Singlet-A     11.6089 eV  106.80 nm  f=0.0502  <S**2>=0.000
       8 -> 14         0.11812
      10 -> 14         0.18814
      11 -> 15         0.40638
      12 -> 18        -0.31596
      12 -> 19         0.19436
      13 -> 21         0.21737

 Excited State  17:      Singlet-A     11.7045 eV  105.93 nm  f=0.0729  <S**2>=0.000
      10 -> 15         0.21157
      10 -> 16         0.17170
      11 -> 16        -0.27726
      12 -> 18         0.17210
      12 -> 19         0.30751
      13 -> 21         0.16682
      13 -> 22        -0.28048
      13 -> 23         0.17458

 Excited State  18:      Singlet-A     11.8035 eV  105.04 nm  f=0.0668  <S**2>=0.000
       8 -> 14         0.11830
      10 -> 15         0.15249
      11 -> 15         0.21041
      11 -> 16         0.30967
      12 -> 18         0.30255
      12 -> 19        -0.29038
      13 -> 21         0.11770
      13 -> 22        -0.17374
      13 -> 23         0.10138

 Excited State  19:      Singlet-A     11.9123 eV  104.08 nm  f=0.0337  <S**2>=0.000
      10 -> 14         0.11747
      10 -> 15         0.21911
      11 -> 15         0.11842
      12 -> 18         0.23194
      12 -> 19         0.19431
      13 -> 21        -0.18334
      13 -> 22         0.44594

 Excited State  20:      Singlet-A     12.0493 eV  102.90 nm  f=0.1113  <S**2>=0.000
      10 -> 15         0.10917
      10 -> 16         0.23678
      11 -> 15        -0.27375
      11 -> 16         0.43523
      12 -> 18        -0.20934
      12 -> 19         0.17100

 Excited State  21:      Singlet-A     12.1876 eV  101.73 nm  f=0.0798  <S**2>=0.000
      10 -> 15         0.40461
      11 -> 16        -0.16277
      12 -> 16        -0.10551
      12 -> 18        -0.25225
      12 -> 19        -0.25256
      12 -> 20        -0.11709
      13 -> 26        -0.11644

 Excited State  22:      Singlet-A     12.2863 eV  100.91 nm  f=0.0179  <S**2>=0.000
      10 -> 15        -0.19190
      10 -> 16         0.30615
      11 -> 17        -0.15452
      12 -> 19        -0.11457
      12 -> 21         0.19862
      13 -> 21         0.10593
      13 -> 22         0.16954
      13 -> 24         0.26660
      13 -> 25        -0.16785
      13 -> 26        -0.19369

 Excited State  23:      Singlet-A     12.3164 eV  100.67 nm  f=0.0059  <S**2>=0.000
      10 -> 16        -0.30132
      11 -> 17        -0.11708
      12 -> 20         0.36234
      12 -> 21        -0.10489
      12 -> 22        -0.17095
      13 -> 23         0.11104
      13 -> 24         0.20348
      13 -> 25        -0.22343
      13 -> 26        -0.11129

 Excited State  24:      Singlet-A     12.3811 eV  100.14 nm  f=0.0696  <S**2>=0.000
      10 -> 16         0.19193
      11 -> 17        -0.22944
      11 -> 18         0.11479
      11 -> 21        -0.10292
      12 -> 18        -0.11426
      12 -> 20         0.40398
      12 -> 21         0.12643
      13 -> 24        -0.17579
      13 -> 26         0.15614

 Excited State  25:      Singlet-A     12.5257 eV   98.98 nm  f=0.0742  <S**2>=0.000
       8 -> 14         0.10098
       9 -> 14         0.12800
      10 -> 16         0.12962
      11 -> 17         0.47895
      11 -> 18         0.16251
      11 -> 22        -0.10877
      12 -> 20         0.24870
      12 -> 22         0.16330

 Excited State  26:      Singlet-A     12.6450 eV   98.05 nm  f=0.0145  <S**2>=0.000
       9 -> 14         0.38071
      11 -> 18         0.13486
      12 -> 19         0.11555
      12 -> 20        -0.16295
      12 -> 21         0.13738
      12 -> 22         0.17867
      12 -> 23         0.23625
      13 -> 24         0.23448

 Excited State  27:      Singlet-A     12.7165 eV   97.50 nm  f=0.0346  <S**2>=0.000
       9 -> 14        -0.12232
      10 -> 16        -0.10772
      10 -> 17         0.36800
      10 -> 21         0.12908
      11 -> 18         0.18331
      12 -> 21         0.28570
      12 -> 23         0.23514
      13 -> 24        -0.15512
      13 -> 25        -0.10068

 Excited State  28:      Singlet-A     12.7635 eV   97.14 nm  f=0.0489  <S**2>=0.000
       8 -> 14         0.12935
       8 -> 15         0.11810
       9 -> 14         0.14484
      10 -> 17         0.29436
      10 -> 21         0.13233
      11 -> 18        -0.22707
      11 -> 19        -0.19230
      12 -> 21         0.14068
      12 -> 23        -0.26381
      13 -> 25         0.18067

 Excited State  29:      Singlet-A     12.8067 eV   96.81 nm  f=0.0367  <S**2>=0.000
       9 -> 14        -0.34277
      10 -> 15        -0.10198
      11 -> 18         0.13638
      12 -> 20         0.10645
      13 -> 21        -0.13473
      13 -> 24         0.19206
      13 -> 25         0.40534

 Excited State  30:      Singlet-A     12.9246 eV   95.93 nm  f=0.0128  <S**2>=0.000
       9 -> 16         0.15269
      10 -> 16        -0.22166
      10 -> 17        -0.16507
      10 -> 18        -0.11833
      11 -> 16         0.13319
      12 -> 19         0.13884
      12 -> 21         0.26766
      12 -> 22         0.32535
      12 -> 23        -0.24264
      13 -> 25        -0.11590

 Excited State  31:      Singlet-A     13.0669 eV   94.88 nm  f=0.0243  <S**2>=0.000
       8 -> 14         0.27599
      10 -> 17        -0.13399
      11 -> 18        -0.12471
      11 -> 19        -0.24663
      11 -> 25         0.13597
      12 -> 23         0.22825
      13 -> 24        -0.19850
      13 -> 26        -0.11334
      13 -> 27        -0.21894
      13 -> 28        -0.13961
      13 -> 29         0.11676

 Excited State  32:      Singlet-A     13.1359 eV   94.39 nm  f=0.0362  <S**2>=0.000
       9 -> 14         0.10844
      10 -> 18         0.28599
      10 -> 23        -0.13918
      11 -> 19         0.24876
      11 -> 20         0.15295
      11 -> 21        -0.14845
      12 -> 22         0.10664
      13 -> 24        -0.10713
      13 -> 25         0.16035
      13 -> 26        -0.17274
      13 -> 27        -0.20252
      13 -> 28        -0.15562

 Excited State  33:      Singlet-A     13.1581 eV   94.23 nm  f=0.0746  <S**2>=0.000
      10 -> 18         0.21528
      10 -> 20        -0.14616
      11 -> 18         0.32445
      11 -> 19        -0.30270
      11 -> 20        -0.22115
      11 -> 23        -0.16668
      12 -> 23        -0.18720
      13 -> 26        -0.13908

 Excited State  34:      Singlet-A     13.2732 eV   93.41 nm  f=0.0128  <S**2>=0.000
       9 -> 15         0.18607
       9 -> 17        -0.11414
      10 -> 17         0.26825
      11 -> 17        -0.10630
      11 -> 18        -0.11923
      11 -> 20        -0.25434
      12 -> 21        -0.23236
      12 -> 22         0.29787
      12 -> 24        -0.13441
      13 -> 26         0.11688

 Excited State  35:      Singlet-A     13.3110 eV   93.14 nm  f=0.0247  <S**2>=0.000
      10 -> 18         0.24716
      10 -> 19        -0.16333
      10 -> 23        -0.15046
      12 -> 21         0.15312
      13 -> 24         0.15707
      13 -> 26         0.30609
      13 -> 27        -0.23957
      13 -> 28         0.26590
      13 -> 29         0.10092

 Excited State  36:      Singlet-A     13.3228 eV   93.06 nm  f=0.0293  <S**2>=0.000
       8 -> 14         0.29485
      10 -> 20        -0.10870
      11 -> 19         0.29363
      11 -> 20        -0.28441
      11 -> 25        -0.10000
      12 -> 21         0.13945
      12 -> 22        -0.21380
      12 -> 25         0.17320

 Excited State  37:      Singlet-A     13.4191 eV   92.39 nm  f=0.0038  <S**2>=0.000
       9 -> 14        -0.10909
      10 -> 19         0.49378
      10 -> 21        -0.17810
      10 -> 25        -0.18589
      11 -> 22        -0.10685
      12 -> 25        -0.11617
      13 -> 25        -0.10989
      13 -> 28         0.13357

 Excited State  38:      Singlet-A     13.4571 eV   92.13 nm  f=0.0459  <S**2>=0.000
       8 -> 14         0.28654
       8 -> 16         0.10016
      10 -> 18        -0.17357
      11 -> 17        -0.13395
      11 -> 18         0.18514
      11 -> 20         0.12364
      11 -> 21        -0.17868
      11 -> 22        -0.13402
      11 -> 23        -0.10019
      12 -> 21        -0.16807
      12 -> 23        -0.11352
      12 -> 24         0.19956
      13 -> 25        -0.12160

 Excited State  39:      Singlet-A     13.5475 eV   91.52 nm  f=0.0243  <S**2>=0.000
       8 -> 14        -0.14263
       9 -> 15         0.15100
      10 -> 18        -0.17106
      10 -> 20         0.34209
      12 -> 22        -0.15724
      12 -> 24        -0.17409
      13 -> 24        -0.12144
      13 -> 27        -0.31131
      13 -> 28         0.13625

 Excited State  40:      Singlet-A     13.5724 eV   91.35 nm  f=0.0376  <S**2>=0.000
       8 -> 14        -0.21512
       9 -> 15        -0.12952
      10 -> 18        -0.13469
      10 -> 19         0.17535
      10 -> 20        -0.22210
      10 -> 21         0.10374
      10 -> 23         0.13024
      12 -> 24         0.25754
      12 -> 25        -0.18532
      13 -> 27        -0.25037
      13 -> 29         0.10403

 Excited State  41:      Singlet-A     13.7196 eV   90.37 nm  f=0.0323  <S**2>=0.000
       8 -> 16         0.11986
       9 -> 15         0.10863
      10 -> 19        -0.14957
      10 -> 20        -0.17040
      11 -> 18        -0.12268
      11 -> 20        -0.11109
      11 -> 22        -0.24429
      11 -> 23         0.12425
      12 -> 25        -0.14120
      13 -> 26        -0.26838
      13 -> 27         0.10085
      13 -> 28         0.28268

 Excited State  42:      Singlet-A     13.7672 eV   90.06 nm  f=0.0717  <S**2>=0.000
       7 -> 14         0.13477
       9 -> 15         0.35612
       9 -> 16        -0.13654
      10 -> 21        -0.10856
      10 -> 22        -0.10221
      11 -> 20         0.21583
      12 -> 24         0.23806
      12 -> 25         0.16114
      12 -> 26        -0.15127
      12 -> 27        -0.10843
      13 -> 26        -0.11605

 Excited State  43:      Singlet-A     13.8896 eV   89.26 nm  f=0.0145  <S**2>=0.000
       8 -> 16        -0.16254
       9 -> 15        -0.26251
       9 -> 16         0.10999
      11 -> 20         0.10657
      11 -> 21         0.19188
      11 -> 22         0.17948
      11 -> 23        -0.14423
      13 -> 24        -0.10678
      13 -> 26        -0.19973
      13 -> 27        -0.10648
      13 -> 28         0.33311

 Excited State  44:      Singlet-A     13.9457 eV   88.91 nm  f=0.0491  <S**2>=0.000
       8 -> 15         0.10275
       8 -> 17         0.10774
       9 -> 15         0.19682
       9 -> 16         0.32608
      10 -> 21         0.16549
      10 -> 22         0.18480
      11 -> 22         0.24890
      12 -> 19        -0.11334
      12 -> 25        -0.17534
      12 -> 26        -0.12748

 Excited State  45:      Singlet-A     14.0550 eV   88.21 nm  f=0.0607  <S**2>=0.000
       8 -> 17         0.13773
       9 -> 15        -0.16841
       9 -> 17        -0.17165
       9 -> 20        -0.11905
      10 -> 18         0.11281
      10 -> 20         0.18223
      10 -> 21        -0.20076
      11 -> 20        -0.19823
      11 -> 21        -0.13943
      11 -> 22         0.19464
      11 -> 23         0.10910
      12 -> 24         0.25175
      12 -> 25         0.12349

 Excited State  46:      Singlet-A     14.0819 eV   88.05 nm  f=0.0238  <S**2>=0.000
       8 -> 15         0.22449
       8 -> 17        -0.15824
      10 -> 20         0.30661
      11 -> 17        -0.10013
      11 -> 21         0.25226
      11 -> 22        -0.16484
      12 -> 24         0.20786
      12 -> 25        -0.13254
      13 -> 28        -0.10787
      13 -> 29        -0.10986

 Excited State  47:      Singlet-A     14.1984 eV   87.32 nm  f=0.0315  <S**2>=0.000
       8 -> 15        -0.14475
       9 -> 16         0.46498
       9 -> 19        -0.10603
      11 -> 22        -0.10438
      11 -> 25         0.10827
      12 -> 24         0.14381
      12 -> 25         0.22632

 Excited State  48:      Singlet-A     14.2810 eV   86.82 nm  f=0.0432  <S**2>=0.000
       8 -> 14        -0.10211
       8 -> 15         0.45333
       8 -> 23         0.10413
       9 -> 17        -0.13622
      11 -> 21        -0.23965
      11 -> 22        -0.13145
      12 -> 25         0.14306

 Excited State  49:      Singlet-A     14.3545 eV   86.37 nm  f=0.0324  <S**2>=0.000
       8 -> 16        -0.18778
       9 -> 15         0.13380
       9 -> 18         0.10770
      10 -> 22         0.16443
      10 -> 23         0.17368
      11 -> 23        -0.23233
      12 -> 24         0.10824
      12 -> 26         0.21270
      12 -> 27         0.24219
      12 -> 28         0.13809
      13 -> 28        -0.10842
      13 -> 29        -0.14257

 Excited State  50:      Singlet-A     14.4427 eV   85.85 nm  f=0.0142  <S**2>=0.000
       9 -> 16        -0.15699
       9 -> 17         0.27568
       9 -> 19        -0.18735
      10 -> 21         0.28236
      11 -> 21        -0.17505
      11 -> 23        -0.10700
      12 -> 25         0.14400
      12 -> 26        -0.13216
      12 -> 27         0.15070
      12 -> 28         0.11777

 Excited State  51:      Singlet-A     14.4904 eV   85.56 nm  f=0.0384  <S**2>=0.000
       7 -> 14        -0.24053
       9 -> 19         0.11800
      10 -> 20         0.10059
      10 -> 22         0.15377
      11 -> 21         0.16263
      11 -> 22        -0.11711
      11 -> 23        -0.11031
      12 -> 25         0.20727
      13 -> 29         0.37300

 Excited State  52:      Singlet-A     14.5748 eV   85.07 nm  f=0.0082  <S**2>=0.000
       9 -> 19        -0.13019
      10 -> 18        -0.12861
      11 -> 18         0.12492
      11 -> 23         0.20753
      12 -> 27         0.35982
      13 -> 29         0.29375
      13 -> 30         0.14898

 Excited State  53:      Singlet-A     14.6269 eV   84.76 nm  f=0.0312  <S**2>=0.000
       7 -> 14        -0.13575
       8 -> 16        -0.15425
       8 -> 17         0.10550
       9 -> 17         0.30615
       9 -> 21         0.10177
      10 -> 17         0.10425
      10 -> 19        -0.13418
      10 -> 21        -0.28197
      10 -> 25         0.12892
      11 -> 23        -0.14837
      11 -> 24         0.11068
      12 -> 25        -0.10450
      13 -> 29         0.13630

 Excited State  54:      Singlet-A     14.6393 eV   84.69 nm  f=0.0919  <S**2>=0.000
       7 -> 14         0.49288
       7 -> 15         0.14356
      10 -> 22         0.12166
      11 -> 24         0.15142
      13 -> 27         0.11842
      13 -> 29         0.22691

 Excited State  55:      Singlet-A     14.7234 eV   84.21 nm  f=0.0682  <S**2>=0.000
       8 -> 16         0.19783
       9 -> 17         0.29846
      10 -> 22         0.27157
      11 -> 20         0.10838
      11 -> 21         0.11963
      11 -> 23         0.19759
      11 -> 24         0.13598
      11 -> 25        -0.11476
      12 -> 25         0.14968
      12 -> 26         0.14772
      13 -> 29        -0.11767

 Excited State  56:      Singlet-A     14.8977 eV   83.22 nm  f=0.0165  <S**2>=0.000
       9 -> 18        -0.13746
       9 -> 19        -0.11937
      12 -> 26         0.23363
      13 -> 25         0.10588
      13 -> 29        -0.11551
      13 -> 30         0.41625

 Excited State  57:      Singlet-A     14.9317 eV   83.03 nm  f=0.1768  <S**2>=0.000
       8 -> 16        -0.25337
       8 -> 20        -0.10488
      10 -> 18        -0.12706
      10 -> 23        -0.23760
      11 -> 24        -0.25798
      11 -> 26         0.10394
      12 -> 24         0.11924
      12 -> 26         0.32583
      12 -> 27        -0.16690

 Excited State  58:      Singlet-A     14.9805 eV   82.76 nm  f=0.0604  <S**2>=0.000
       9 -> 20         0.11397
      10 -> 21        -0.14447
      10 -> 22         0.31249
      10 -> 24        -0.10711
      11 -> 21         0.13989
      11 -> 23        -0.14025
      11 -> 24        -0.19192
      11 -> 28        -0.10049
      12 -> 26        -0.25329

 The electronic state is 1-A.
 Alpha  occ. eigenvalues --  -18.97937 -10.16624 -10.11484  -1.14715  -0.89096
 Alpha  occ. eigenvalues --   -0.76260  -0.63636  -0.58610  -0.56414  -0.50611
 Alpha  occ. eigenvalues --   -0.49425  -0.44557  -0.39623
 Alpha virt. eigenvalues --    0.08663   0.11659   0.12359   0.14977   0.17684
 Alpha virt. eigenvalues --    0.18512   0.19664   0.20857   0.21581   0.22995
 Alpha virt. eigenvalues --    0.25829   0.26388   0.28849   0.29281   0.30957

 Mulliken charges:
               1
     1  C    0.170519
     2  C    0.128695
     3  O   -0.416576
     4  H    0.061031
     5  H    0.006967
     6  H    0.035132
     7  H   -0.048386
     8  H   -0.114066
     9  H    0.176683
 Sum of Mulliken charges =  -0.00000

 Dipole moment (field-independent basis, Debye):
    X=             -1.3669    Y=             -0.1538    Z=              1.1797  Tot=              1.8121
 Quadrupole moment (field-independent basis, Debye-Ang):
   XX=            -22.5320   YY=            -18.6257   ZZ=            -19.2692
   XY=             -0.9713   XZ=              1.7663   YZ=             -1.4841

 Normal termination of Gaussian 16 at Mon Mar 21 20:23:08 2022.
