 Gaussian 16, Revision C.01,
 Gaussian 16:  EM64L-G16RevC.01  3-Jul-2019

 ----------------------------------------------------------------------
 #P TD(Nstates=10000) lc-whpbe/Gen SCF(maxcycles=100) Int(Grid=ultrafin
 e)
 ----------------------------------------------------------------------

 ---------------------
 xGDB7_00001_tier4.com
 ---------------------
 Symbolic Z-matrix:
 Charge =  0 Multiplicity = 1

                         Standard orientation:
 ---------------------------------------------------------------------
 Center     Atomic      Atomic             Coordinates (Angstroms)
 Number     Number       Type             X           Y           Z
 ---------------------------------------------------------------------
      1          7           0        1.078471   -0.156900   -0.000001
      2          6           0       -0.161963    0.384944   -0.000002
      3          8           0       -1.189170   -0.245458    0.000001
      4          1           0        1.898427    0.419427    0.000004
      5          1           0        1.178124   -1.157073    0.000005
      6          1           0       -0.140706    1.489948    0.000007
 ---------------------------------------------------------------------

 SCF Done:  E(RLC-wHPBE) =  -169.682399979     A.U. after   13 cycles

 Excitation energies and oscillator strengths:

 Excited State   1:      Singlet-A      5.6651 eV  218.86 nm  f=0.0007  <S**2>=0.000
      12 -> 14         0.69968
 This state for optimization and/or second-order correction.
 Total Energy, E(TD-HF/TD-DFT) =  -169.474210745
 Copying the excited state density for this state as the 1-particle RhoCI density.

 Excited State   2:      Singlet-A      7.7627 eV  159.72 nm  f=0.1012  <S**2>=0.000
      11 -> 14         0.57836
      12 -> 13         0.37429

 Excited State   3:      Singlet-A      7.9815 eV  155.34 nm  f=0.0158  <S**2>=0.000
      11 -> 13         0.66662
      11 -> 15         0.16604

 Excited State   4:      Singlet-A      8.2361 eV  150.54 nm  f=0.1671  <S**2>=0.000
      11 -> 14        -0.32412
      12 -> 13         0.48570
      12 -> 15        -0.33352
      12 -> 16         0.13112

 Excited State   5:      Singlet-A      8.9332 eV  138.79 nm  f=0.0028  <S**2>=0.000
      11 -> 13        -0.14573
      11 -> 15         0.62727
      11 -> 16         0.22585

 Excited State   6:      Singlet-A      8.9428 eV  138.64 nm  f=0.1504  <S**2>=0.000
      11 -> 14        -0.16650
      12 -> 13         0.21672
      12 -> 15         0.57317
      12 -> 16         0.25813

 Excited State   7:      Singlet-A      9.5750 eV  129.49 nm  f=0.0898  <S**2>=0.000
      12 -> 13        -0.23761
      12 -> 15        -0.15065
      12 -> 16         0.54858
      12 -> 18         0.28248

 Excited State   8:      Singlet-A      9.8229 eV  126.22 nm  f=0.0144  <S**2>=0.000
       9 -> 13         0.11375
      11 -> 15        -0.21594
      11 -> 16         0.61043
      11 -> 18        -0.11335
      12 -> 17        -0.13808

 Excited State   9:      Singlet-A      9.9076 eV  125.14 nm  f=0.0035  <S**2>=0.000
      11 -> 16         0.12547
      12 -> 17         0.68600

 Excited State  10:      Singlet-A     10.3083 eV  120.28 nm  f=0.0025  <S**2>=0.000
      10 -> 14         0.69161

 Excited State  11:      Singlet-A     10.5252 eV  117.80 nm  f=0.0003  <S**2>=0.000
      11 -> 18         0.48599
      11 -> 19         0.31160
      11 -> 20        -0.34037

 Excited State  12:      Singlet-A     10.6743 eV  116.15 nm  f=0.0145  <S**2>=0.000
      11 -> 17        -0.21182
      12 -> 16        -0.26205
      12 -> 18         0.55400
      12 -> 19         0.20330

 Excited State  13:      Singlet-A     10.7820 eV  114.99 nm  f=0.0088  <S**2>=0.000
      11 -> 17         0.40901
      12 -> 18         0.30347
      12 -> 19        -0.38968
      12 -> 20         0.22838

 Excited State  14:      Singlet-A     10.8790 eV  113.97 nm  f=0.0033  <S**2>=0.000
       9 -> 14        -0.10909
      11 -> 17         0.48888
      12 -> 19         0.29867
      12 -> 20        -0.34840

 Excited State  15:      Singlet-A     11.0970 eV  111.73 nm  f=0.0028  <S**2>=0.000
       9 -> 15        -0.13370
      11 -> 18        -0.26476
      11 -> 19         0.56209
      11 -> 20         0.13429
      11 -> 22         0.17449

 Excited State  16:      Singlet-A     11.1163 eV  111.53 nm  f=0.0285  <S**2>=0.000
       9 -> 14        -0.11489
      11 -> 17         0.12897
      12 -> 15         0.10191
      12 -> 19         0.37445
      12 -> 20         0.54516

 Excited State  17:      Singlet-A     11.5694 eV  107.17 nm  f=0.0542  <S**2>=0.000
       9 -> 15        -0.10963
      11 -> 16         0.10848
      11 -> 18         0.29491
      11 -> 20         0.54837
      11 -> 23         0.22103

 Excited State  18:      Singlet-A     11.6462 eV  106.46 nm  f=0.1083  <S**2>=0.000
       8 -> 13         0.10608
       9 -> 14         0.62637
      10 -> 13        -0.11176
      11 -> 21         0.16562
      12 -> 19         0.15220

 Excited State  19:      Singlet-A     12.0647 eV  102.77 nm  f=0.0107  <S**2>=0.000
      11 -> 21        -0.12530
      12 -> 16        -0.12207
      12 -> 22        -0.25889
      12 -> 23         0.60047

 Excited State  20:      Singlet-A     12.1359 eV  102.16 nm  f=0.0121  <S**2>=0.000
       8 -> 14         0.46158
      12 -> 21        -0.45448
      12 -> 24         0.17184
      12 -> 26        -0.12728

 Excited State  21:      Singlet-A     12.3338 eV  100.52 nm  f=0.0009  <S**2>=0.000
       8 -> 14         0.49153
      12 -> 21         0.43407
      12 -> 24        -0.14198
      12 -> 26         0.10869

 Excited State  22:      Singlet-A     12.3876 eV  100.09 nm  f=0.0430  <S**2>=0.000
      10 -> 13         0.21010
      11 -> 21         0.56598
      11 -> 24        -0.13390
      12 -> 19        -0.10321
      12 -> 22        -0.24471

 Excited State  23:      Singlet-A     12.4193 eV   99.83 nm  f=0.0455  <S**2>=0.000
       9 -> 13         0.63329
      11 -> 16        -0.11066
      11 -> 23         0.14952

 Excited State  24:      Singlet-A     12.5016 eV   99.17 nm  f=0.1172  <S**2>=0.000
       9 -> 14         0.14653
      10 -> 13         0.61529
      10 -> 16         0.13930
      11 -> 21        -0.18304

 Excited State  25:      Singlet-A     12.5086 eV   99.12 nm  f=0.0032  <S**2>=0.000
       9 -> 13        -0.11819
      11 -> 18        -0.16742
      11 -> 19         0.14159
      11 -> 20        -0.12854
      11 -> 22        -0.37690
      11 -> 23         0.47547

 Excited State  26:      Singlet-A     12.7122 eV   97.53 nm  f=0.0376  <S**2>=0.000
      11 -> 21         0.17927
      11 -> 24        -0.14882
      12 -> 22         0.57283
      12 -> 23         0.28044

 Excited State  27:      Singlet-A     12.8340 eV   96.61 nm  f=0.0118  <S**2>=0.000
       9 -> 13        -0.14873
       9 -> 15         0.19690
       9 -> 19        -0.14603
      11 -> 22         0.47642
      11 -> 23         0.37670

 Excited State  28:      Singlet-A     13.1715 eV   94.13 nm  f=0.0994  <S**2>=0.000
      10 -> 15         0.61361
      10 -> 16         0.16731
      10 -> 19        -0.11005
      11 -> 24        -0.21123

 Excited State  29:      Singlet-A     13.2642 eV   93.47 nm  f=0.0026  <S**2>=0.000
       9 -> 15         0.28548
      12 -> 21         0.20951
      12 -> 24         0.57367

 Excited State  30:      Singlet-A     13.2778 eV   93.38 nm  f=0.0295  <S**2>=0.000
       9 -> 17        -0.12980
      10 -> 15         0.24184
      10 -> 16        -0.11850
      11 -> 21         0.10897
      11 -> 24         0.57788

 Excited State  31:      Singlet-A     13.2826 eV   93.34 nm  f=0.0225  <S**2>=0.000
       9 -> 15         0.54085
       9 -> 16         0.12801
      11 -> 19         0.16805
      11 -> 22        -0.17168
      12 -> 21        -0.11860
      12 -> 24        -0.28743

 Excited State  32:      Singlet-A     13.6023 eV   91.15 nm  f=0.0181  <S**2>=0.000
       8 -> 13         0.38045
      10 -> 16         0.44989
      10 -> 18         0.24590
      11 -> 24         0.13954

 Excited State  33:      Singlet-A     14.1692 eV   87.50 nm  f=0.0889  <S**2>=0.000
       9 -> 15        -0.15055
       9 -> 16         0.61191
       9 -> 20        -0.19294
      11 -> 18        -0.11356

 Excited State  34:      Singlet-A     14.2586 eV   86.95 nm  f=0.0371  <S**2>=0.000
      10 -> 17         0.69066

 Excited State  35:      Singlet-A     14.2621 eV   86.93 nm  f=0.1004  <S**2>=0.000
       8 -> 13         0.49521
      10 -> 13         0.15487
      10 -> 16        -0.23967
      10 -> 18        -0.32539

 Excited State  36:      Singlet-A     14.4893 eV   85.57 nm  f=0.0687  <S**2>=0.000
       7 -> 13         0.12597
       8 -> 13        -0.16041
       8 -> 15         0.53745
       9 -> 17         0.10249
      10 -> 16         0.13961
      10 -> 18        -0.16596
      10 -> 19        -0.27352

 Excited State  37:      Singlet-A     14.5360 eV   85.29 nm  f=0.0954  <S**2>=0.000
       7 -> 14         0.21527
       9 -> 18         0.13430
      11 -> 25         0.57629
      11 -> 27         0.17244

 Excited State  38:      Singlet-A     14.5511 eV   85.21 nm  f=0.0126  <S**2>=0.000
      12 -> 25         0.65673
      12 -> 27         0.14356

 Excited State  39:      Singlet-A     14.7007 eV   84.34 nm  f=0.0146  <S**2>=0.000
       7 -> 14         0.64492
       8 -> 14         0.11974
      11 -> 25        -0.20056

 Excited State  40:      Singlet-A     14.7904 eV   83.83 nm  f=0.1096  <S**2>=0.000
       9 -> 17         0.53779
      11 -> 26        -0.15082
      12 -> 25         0.14893
      12 -> 27        -0.30709

 Excited State  41:      Singlet-A     14.8161 eV   83.68 nm  f=0.0005  <S**2>=0.000
       9 -> 18         0.10712
      12 -> 21        -0.14403
      12 -> 26         0.64336

 Excited State  42:      Singlet-A     14.9453 eV   82.96 nm  f=0.1881  <S**2>=0.000
       8 -> 16         0.13295
       9 -> 17         0.21112
      10 -> 16        -0.16290
      10 -> 18         0.24105
      10 -> 19        -0.19832
      10 -> 20         0.31871
      12 -> 27         0.39628

 Excited State  43:      Singlet-A     14.9745 eV   82.80 nm  f=0.0609  <S**2>=0.000
       8 -> 15         0.14383
       8 -> 16         0.17751
       9 -> 17        -0.21565
      10 -> 16        -0.17885
      10 -> 18         0.35118
      10 -> 19        -0.19831
      11 -> 24        -0.13580
      11 -> 26        -0.20850
      12 -> 27        -0.28843

 Excited State  44:      Singlet-A     14.9755 eV   82.79 nm  f=0.0514  <S**2>=0.000
       6 -> 14        -0.10537
       9 -> 16        -0.14860
       9 -> 18         0.48461
       9 -> 19         0.13187
       9 -> 20        -0.31712
      11 -> 27        -0.21567
      12 -> 26        -0.14759

 Excited State  45:      Singlet-A     15.0756 eV   82.24 nm  f=0.0038  <S**2>=0.000
       9 -> 19         0.11143
       9 -> 20        -0.14388
      11 -> 25        -0.19987
      11 -> 27         0.57223
      11 -> 28         0.13811
      11 -> 32        -0.10044

 Excited State  46:      Singlet-A     15.1472 eV   81.85 nm  f=0.0640  <S**2>=0.000
       8 -> 15         0.27797
       9 -> 17         0.15340
       9 -> 21         0.10059
      10 -> 15         0.13796
      10 -> 16        -0.19944
      10 -> 18         0.23249
      10 -> 19         0.36077
      10 -> 20        -0.12682
      11 -> 26         0.28307

 Excited State  47:      Singlet-A     15.2406 eV   81.35 nm  f=0.0742  <S**2>=0.000
       8 -> 15        -0.14258
       9 -> 21         0.12962
      10 -> 19        -0.28983
      11 -> 26         0.52404
      12 -> 27        -0.20676

 Excited State  48:      Singlet-A     15.5409 eV   79.78 nm  f=0.0195  <S**2>=0.000
       7 -> 15        -0.12433
       8 -> 15         0.12283
       8 -> 18         0.11410
       9 -> 17        -0.14393
      10 -> 16         0.15428
      10 -> 19         0.21766
      10 -> 20         0.54178
      12 -> 27        -0.11233
      12 -> 28         0.10585

 Excited State  49:      Singlet-A     15.5809 eV   79.57 nm  f=0.0004  <S**2>=0.000
       9 -> 18        -0.19823
       9 -> 19         0.62623
      11 -> 22         0.13187

 Excited State  50:      Singlet-A     15.7712 eV   78.61 nm  f=0.0076  <S**2>=0.000
       6 -> 14         0.10326
       9 -> 18         0.27824
       9 -> 20         0.46055
       9 -> 23         0.31251
      11 -> 25        -0.18747

 Excited State  51:      Singlet-A     15.7940 eV   78.50 nm  f=0.0054  <S**2>=0.000
       7 -> 13        -0.14055
       8 -> 16         0.53203
       8 -> 20        -0.18783
      10 -> 18        -0.17093
      12 -> 28         0.16023
      12 -> 32        -0.11283

 Excited State  52:      Singlet-A     15.9656 eV   77.66 nm  f=0.0809  <S**2>=0.000
       7 -> 13         0.57232
       7 -> 15         0.22103
       8 -> 16         0.13945
       8 -> 19         0.12033
      10 -> 20         0.10947

 Excited State  53:      Singlet-A     16.1728 eV   76.66 nm  f=0.0028  <S**2>=0.000
       8 -> 17         0.49829
       8 -> 21         0.15858
      10 -> 21        -0.39115
      12 -> 31         0.16652

 Excited State  54:      Singlet-A     16.2674 eV   76.22 nm  f=0.0247  <S**2>=0.000
       8 -> 18        -0.19070
       8 -> 19        -0.20642
      10 -> 23         0.45254
      12 -> 28        -0.22308
      12 -> 29        -0.16504
      12 -> 32         0.20986

 Excited State  55:      Singlet-A     16.3458 eV   75.85 nm  f=0.0015  <S**2>=0.000
       8 -> 16        -0.10571
       8 -> 18        -0.14767
       8 -> 19        -0.27989
       8 -> 20         0.13295
      10 -> 22         0.19001
      12 -> 28         0.36049
      12 -> 29        -0.18053
      12 -> 32        -0.27468
      12 -> 33        -0.13912

 Excited State  56:      Singlet-A     16.3972 eV   75.61 nm  f=0.0263  <S**2>=0.000
       9 -> 16        -0.13329
       9 -> 18        -0.20711
       9 -> 20        -0.20259
       9 -> 22        -0.22565
       9 -> 23         0.31508
      11 -> 27        -0.10769
      11 -> 28         0.35710
      11 -> 29         0.10432
      12 -> 31        -0.18523

 Excited State  57:      Singlet-A     16.4409 eV   75.41 nm  f=0.0174  <S**2>=0.000
       8 -> 18        -0.23523
       8 -> 19        -0.10698
       8 -> 20         0.15434
      10 -> 23         0.10479
      12 -> 29         0.52674
      12 -> 32        -0.21241

 Excited State  58:      Singlet-A     16.4905 eV   75.19 nm  f=0.0112  <S**2>=0.000
       6 -> 14        -0.19169
       8 -> 17        -0.10051
       9 -> 23         0.15464
      11 -> 28         0.10174
      12 -> 31         0.59089

 Excited State  59:      Singlet-A     16.6187 eV   74.61 nm  f=0.0327  <S**2>=0.000
       7 -> 15        -0.15591
       7 -> 19        -0.10685
       8 -> 16         0.11308
       8 -> 19        -0.12044
       9 -> 21         0.30433
       9 -> 24        -0.14306
      10 -> 22         0.36867
      10 -> 23        -0.17790
      11 -> 26        -0.14478
      12 -> 29         0.17978
      12 -> 32         0.14194

 Excited State  60:      Singlet-A     16.6598 eV   74.42 nm  f=0.0161  <S**2>=0.000
       9 -> 20         0.10559
       9 -> 22        -0.17552
       9 -> 23        -0.39588
      11 -> 28         0.40899
      11 -> 29        -0.16531
      11 -> 30        -0.21257

 Excited State  61:      Singlet-A     16.7345 eV   74.09 nm  f=0.1539  <S**2>=0.000
       8 -> 16        -0.15766
       8 -> 19         0.13861
       9 -> 21         0.45848
       9 -> 24        -0.11697
      10 -> 22        -0.28470
      10 -> 23         0.21516
      11 -> 26        -0.15812
      12 -> 28         0.13387

 Excited State  62:      Singlet-A     16.7683 eV   73.94 nm  f=0.0074  <S**2>=0.000
       9 -> 22         0.23059
      11 -> 28         0.25105
      11 -> 29         0.47194
      11 -> 32         0.30780

 Excited State  63:      Singlet-A     16.8311 eV   73.66 nm  f=0.0160  <S**2>=0.000
       8 -> 17         0.40289
      10 -> 21         0.48396
      10 -> 24        -0.24715

 Excited State  64:      Singlet-A     16.9305 eV   73.23 nm  f=0.1071  <S**2>=0.000
       7 -> 13        -0.17425
       7 -> 15         0.30005
       8 -> 18        -0.18391
       8 -> 20         0.16692
       9 -> 24        -0.27443
      10 -> 23        -0.20094
      11 -> 31         0.30627
      12 -> 29        -0.19173

 Excited State  65:      Singlet-A     17.0165 eV   72.86 nm  f=0.0173  <S**2>=0.000
       7 -> 15         0.25829
       7 -> 16         0.13036
       8 -> 18         0.31712
       8 -> 20        -0.20395
      10 -> 22         0.15724
      10 -> 23         0.17502
      11 -> 31         0.21711
      12 -> 28        -0.14499
      12 -> 32        -0.25877

 Excited State  66:      Singlet-A     17.0217 eV   72.84 nm  f=0.0015  <S**2>=0.000
       9 -> 22        -0.33383
      11 -> 27         0.18602
      11 -> 28        -0.11269
      11 -> 30        -0.14479
      11 -> 32         0.49463
      11 -> 34        -0.15068

 Excited State  67:      Singlet-A     17.0459 eV   72.74 nm  f=0.0193  <S**2>=0.000
       7 -> 13         0.10337
       7 -> 15        -0.26905
       9 -> 21        -0.28887
       9 -> 24        -0.16249
      11 -> 31         0.43216
      12 -> 28         0.20661
      12 -> 29         0.12091

 Excited State  68:      Singlet-A     17.0769 eV   72.60 nm  f=0.0359  <S**2>=0.000
       6 -> 14        -0.29618
       9 -> 20         0.11247
       9 -> 22        -0.31204
      11 -> 28        -0.20370
      11 -> 29         0.38785
      11 -> 30        -0.11569
      11 -> 32        -0.13610
      11 -> 33        -0.14460
      12 -> 31        -0.10500

 Excited State  69:      Singlet-A     17.1556 eV   72.27 nm  f=0.1666  <S**2>=0.000
       6 -> 14         0.50900
       9 -> 22        -0.17100
       9 -> 23        -0.13951
      11 -> 28        -0.12615
      11 -> 29         0.13097
      11 -> 30        -0.12307
      11 -> 32        -0.16751
      12 -> 31         0.19261

 Excited State  70:      Singlet-A     17.1860 eV   72.14 nm  f=0.0331  <S**2>=0.000
       7 -> 15         0.28220
       7 -> 16         0.16033
       8 -> 19        -0.12140
      12 -> 28         0.35647
      12 -> 29         0.14522
      12 -> 30         0.10679
      12 -> 32         0.36180

 Excited State  71:      Singlet-A     17.3693 eV   71.38 nm  f=0.0015  <S**2>=0.000
       7 -> 16        -0.12413
       8 -> 19         0.29460
       8 -> 20         0.28722
       8 -> 23         0.17502
      10 -> 22         0.28384
      10 -> 23         0.25294
      12 -> 30        -0.22764

 Excited State  72:      Singlet-A     17.4981 eV   70.86 nm  f=0.0481  <S**2>=0.000
       6 -> 14         0.14918
       7 -> 17        -0.19253
       8 -> 17         0.15195
       8 -> 24        -0.13553
      10 -> 21         0.16923
      10 -> 24         0.56389

 Excited State  73:      Singlet-A     17.5471 eV   70.66 nm  f=0.0011  <S**2>=0.000
       8 -> 18         0.21486
       8 -> 19        -0.11646
       8 -> 20         0.34151
       8 -> 22        -0.11104
       8 -> 23         0.17933
       9 -> 24        -0.11643
      10 -> 22        -0.14882
      12 -> 30         0.38861
      12 -> 33         0.10009

 Excited State  74:      Singlet-A     17.5935 eV   70.47 nm  f=0.1536  <S**2>=0.000
       8 -> 18        -0.20791
       8 -> 19         0.28592
       8 -> 22         0.18251
       8 -> 23        -0.13237
       9 -> 24         0.13458
      10 -> 22         0.19220
      12 -> 30         0.42566

 Excited State  75:      Singlet-A     17.6744 eV   70.15 nm  f=0.0148  <S**2>=0.000
       6 -> 13         0.25439
       7 -> 16        -0.17501
       8 -> 18         0.10124
       8 -> 19        -0.11483
       8 -> 20         0.11314
       9 -> 21         0.11388
       9 -> 24         0.46447
      11 -> 31         0.28717

 Excited State  76:      Singlet-A     17.7296 eV   69.93 nm  f=0.0058  <S**2>=0.000
       9 -> 22        -0.20444
       9 -> 23        -0.13157
      11 -> 30         0.54358
      11 -> 33        -0.22920
      11 -> 34         0.14582

 Excited State  77:      Singlet-A     18.0249 eV   68.78 nm  f=0.0355  <S**2>=0.000
       6 -> 13         0.48017
       7 -> 16        -0.16011
       7 -> 18         0.13533
       8 -> 20        -0.11375
       9 -> 24        -0.25469
      11 -> 31        -0.15433
      12 -> 34        -0.20010

 Excited State  78:      Singlet-A     18.0414 eV   68.72 nm  f=0.0073  <S**2>=0.000
       9 -> 22        -0.14365
       9 -> 23        -0.11363
      11 -> 29         0.14343
      11 -> 30         0.23436
      11 -> 32        -0.12826
      11 -> 33         0.56500

 Excited State  79:      Singlet-A     18.0971 eV   68.51 nm  f=0.0509  <S**2>=0.000
       6 -> 13         0.34278
       7 -> 15        -0.16005
       7 -> 16         0.42034
       7 -> 18        -0.19926
       8 -> 19         0.12847
       8 -> 20         0.16078
      12 -> 34         0.19675

 Excited State  80:      Singlet-A     18.1221 eV   68.42 nm  f=0.0044  <S**2>=0.000
       8 -> 21         0.61213
       8 -> 24        -0.22558
      10 -> 21         0.10992
      10 -> 26         0.12330

 Excited State  81:      Singlet-A     18.2840 eV   67.81 nm  f=0.0388  <S**2>=0.000
       8 -> 23        -0.13725
      12 -> 27         0.12295
      12 -> 28         0.12361
      12 -> 30        -0.17207
      12 -> 33         0.58627

 Excited State  82:      Singlet-A     18.3815 eV   67.45 nm  f=0.0740  <S**2>=0.000
       6 -> 13        -0.12327
       7 -> 18         0.10112
       7 -> 19         0.19700
       7 -> 20        -0.18009
       8 -> 16         0.14599
       8 -> 18         0.22072
       8 -> 20         0.16146
       8 -> 22         0.35033
       8 -> 23        -0.26253

 The electronic state is 1-A.
 Alpha  occ. eigenvalues --  -18.95573 -14.25260 -10.23211  -1.17322  -1.04990
 Alpha  occ. eigenvalues --   -0.76611  -0.69843  -0.61626  -0.55242  -0.54616
 Alpha  occ. eigenvalues --   -0.40416  -0.38569
 Alpha virt. eigenvalues --    0.08716   0.10460   0.11633   0.15461   0.17841
 Alpha virt. eigenvalues --    0.18628   0.19418   0.21974   0.24908   0.25882
 Alpha virt. eigenvalues --    0.26535   0.28695   0.33696   0.34525   0.35997

 Mulliken charges:
               1
     1  N    0.168037
     2  C    0.524202
     3  O   -0.379151
     4  H   -0.100380
     5  H   -0.066336
     6  H   -0.146371
 Sum of Mulliken charges =  -0.00000

 Dipole moment (field-independent basis, Debye):
    X=              3.9606    Y=              0.9503    Z=              0.0000  Tot=              4.0730
 Quadrupole moment (field-independent basis, Debye-Ang):
   XX=            -18.1718   YY=            -15.3754   ZZ=            -18.8393
   XY=             -1.3113   XZ=              0.0000   YZ=             -0.0000

 Normal termination of Gaussian 16 at Mon Mar 21 20:07:32 2022.
