 Gaussian 16, Revision C.01,
 Gaussian 16:  EM64L-G16RevC.01  3-Jul-2019

 ----------------------------------------------------------------------
 #P TD(Nstates=10000) lc-whpbe/Gen SCF(maxcycles=100) Int(Grid=ultrafin
 e)
 ----------------------------------------------------------------------

 ---------------------
 xGDB7_00001_tier4.com
 ---------------------
 Symbolic Z-matrix:
 Charge =  0 Multiplicity = 1

                         Standard orientation:
 ---------------------------------------------------------------------
 Center     Atomic      Atomic             Coordinates (Angstroms)
 Number     Number       Type             X           Y           Z
 ---------------------------------------------------------------------
      1          6           0        0.926251   -0.719055    0.000000
      2          6           0        0.000000    0.459276    0.000000
      3          8           0       -1.196998    0.387136    0.000000
      4          1           0        1.575965   -0.668678    0.877698
      5          1           0        1.575965   -0.668678   -0.877698
      6          1           0        0.366733   -1.652236    0.000000
      7          1           0        0.499813    1.451182    0.000000
 ---------------------------------------------------------------------

 SCF Done:  E(RLC-wHPBE) =  -153.631665335     A.U. after   13 cycles

 Excitation energies and oscillator strengths:

 Excited State   1:      Singlet-A"     4.3388 eV  285.76 nm  f=0.0001  <S**2>=0.000
      12 -> 13         0.70062
 This state for optimization and/or second-order correction.
 Total Energy, E(TD-HF/TD-DFT) =  -153.472218498
 Copying the excited state density for this state as the 1-particle RhoCI density.

 Excited State   2:      Singlet-A'     7.8798 eV  157.35 nm  f=0.0179  <S**2>=0.000
      12 -> 14         0.61404
      12 -> 15         0.29441
      12 -> 17         0.10031

 Excited State   3:      Singlet-A'     8.8348 eV  140.34 nm  f=0.0842  <S**2>=0.000
      11 -> 13        -0.14835
      12 -> 14        -0.24362
      12 -> 15         0.58042
      12 -> 17        -0.19523
      12 -> 18        -0.12404

 Excited State   4:      Singlet-A"     9.1407 eV  135.64 nm  f=0.0003  <S**2>=0.000
       7 -> 13         0.16385
       9 -> 13        -0.22055
      10 -> 13         0.64478

 Excited State   5:      Singlet-A'     9.3276 eV  132.92 nm  f=0.1356  <S**2>=0.000
      11 -> 13         0.46311
      12 -> 17        -0.43770
      12 -> 18         0.23985

 Excited State   6:      Singlet-A"     9.5244 eV  130.18 nm  f=0.0104  <S**2>=0.000
      12 -> 16         0.66611
      12 -> 20        -0.17811

 Excited State   7:      Singlet-A'     9.6626 eV  128.31 nm  f=0.2402  <S**2>=0.000
      11 -> 13         0.45498
      12 -> 14        -0.18322
      12 -> 15         0.15921
      12 -> 17         0.42833
      12 -> 18        -0.10177

 Excited State   8:      Singlet-A"     9.8465 eV  125.92 nm  f=0.0010  <S**2>=0.000
       7 -> 13         0.13350
       9 -> 13         0.65007
      10 -> 13         0.19043

 Excited State   9:      Singlet-A'    10.1753 eV  121.85 nm  f=0.0025  <S**2>=0.000
      11 -> 13        -0.14496
      12 -> 17         0.21817
      12 -> 18         0.51307
      12 -> 19         0.34573

 Excited State  10:      Singlet-A"    10.4863 eV  118.23 nm  f=0.0056  <S**2>=0.000
      12 -> 16         0.15321
      12 -> 20         0.65439
      12 -> 22        -0.14472

 Excited State  11:      Singlet-A'    10.5582 eV  117.43 nm  f=0.0922  <S**2>=0.000
      12 -> 14         0.11276
      12 -> 15        -0.13512
      12 -> 18        -0.34143
      12 -> 19         0.56821

 Excited State  12:      Singlet-A"    10.8618 eV  114.15 nm  f=0.0134  <S**2>=0.000
      11 -> 14         0.67281

 Excited State  13:      Singlet-A'    11.1144 eV  111.55 nm  f=0.0070  <S**2>=0.000
       8 -> 13         0.14429
      12 -> 21         0.64415
      12 -> 24         0.15701

 Excited State  14:      Singlet-A"    11.2918 eV  109.80 nm  f=0.0097  <S**2>=0.000
       7 -> 13         0.65088
      10 -> 13        -0.20369

 Excited State  15:      Singlet-A'    11.4261 eV  108.51 nm  f=0.0734  <S**2>=0.000
       8 -> 13         0.31067
      10 -> 14         0.57600
      10 -> 15        -0.16372

 Excited State  16:      Singlet-A'    11.6448 eV  106.47 nm  f=0.1138  <S**2>=0.000
       8 -> 13         0.57762
      10 -> 14        -0.29149
      10 -> 15         0.10411
      12 -> 21        -0.13381

 Excited State  17:      Singlet-A"    11.7262 eV  105.73 nm  f=0.0731  <S**2>=0.000
       8 -> 14         0.21282
      11 -> 15         0.64962

 Excited State  18:      Singlet-A"    12.0538 eV  102.86 nm  f=0.0075  <S**2>=0.000
      12 -> 16         0.12776
      12 -> 20         0.12632
      12 -> 22         0.65572
      12 -> 27         0.12546

 Excited State  19:      Singlet-A'    12.0781 eV  102.65 nm  f=0.0503  <S**2>=0.000
       8 -> 13         0.11507
      12 -> 21        -0.11237
      12 -> 23         0.39987
      12 -> 24         0.43833
      12 -> 25         0.27502

 Excited State  20:      Singlet-A"    12.4675 eV   99.45 nm  f=0.1100  <S**2>=0.000
       8 -> 14         0.28073
      11 -> 17         0.57945
      11 -> 18        -0.10050
      11 -> 19        -0.16470

 Excited State  21:      Singlet-A'    12.4770 eV   99.37 nm  f=0.1034  <S**2>=0.000
      10 -> 14         0.16761
      10 -> 15         0.54144
      10 -> 19        -0.10365
      11 -> 16         0.17773
      12 -> 23         0.17625
      12 -> 24        -0.18424

 Excited State  22:      Singlet-A'    12.5157 eV   99.06 nm  f=0.0391  <S**2>=0.000
       9 -> 14         0.12790
      10 -> 15        -0.27183
      11 -> 16         0.24634
      12 -> 23         0.44614
      12 -> 24        -0.27212
      12 -> 25        -0.11891

 Excited State  23:      Singlet-A'    12.7720 eV   97.08 nm  f=0.0673  <S**2>=0.000
      11 -> 16         0.57120
      12 -> 23        -0.20640
      12 -> 24         0.25672
      12 -> 25        -0.12241

 Excited State  24:      Singlet-A"    12.9017 eV   96.10 nm  f=0.0067  <S**2>=0.000
       8 -> 15        -0.16168
      11 -> 17         0.14186
      11 -> 18         0.60349
      11 -> 19         0.16246
      11 -> 23         0.10353

 Excited State  25:      Singlet-A'    13.0664 eV   94.89 nm  f=0.0174  <S**2>=0.000
       9 -> 14        -0.14566
      11 -> 16         0.18845
      11 -> 20         0.11699
      12 -> 24        -0.23536
      12 -> 25         0.55693

 Excited State  26:      Singlet-A'    13.1173 eV   94.52 nm  f=0.0044  <S**2>=0.000
       9 -> 14         0.58632
       9 -> 15         0.13005
       9 -> 17         0.11017
       9 -> 19        -0.10024
      10 -> 17        -0.15584
      10 -> 18         0.10171
      12 -> 25         0.12246

 Excited State  27:      Singlet-A"    13.2458 eV   93.60 nm  f=0.0000  <S**2>=0.000
       8 -> 15        -0.14950
      10 -> 16         0.48398
      10 -> 20         0.31741
      11 -> 18         0.10600
      11 -> 19        -0.25428

 Excited State  28:      Singlet-A"    13.2771 eV   93.38 nm  f=0.0471  <S**2>=0.000
       8 -> 14         0.31615
       8 -> 15         0.21087
      10 -> 16         0.30209
      11 -> 14         0.10508
      11 -> 15        -0.11051
      11 -> 17        -0.11790
      11 -> 19         0.38363
      11 -> 21        -0.16341

 Excited State  29:      Singlet-A"    13.4721 eV   92.03 nm  f=0.0087  <S**2>=0.000
       8 -> 14         0.42385
       8 -> 17        -0.11165
       8 -> 18         0.12381
      10 -> 16        -0.16244
      11 -> 15        -0.12137
      11 -> 17        -0.28345
      11 -> 18         0.10884
      11 -> 19        -0.34515

 Excited State  30:      Singlet-A'    13.4991 eV   91.85 nm  f=0.0542  <S**2>=0.000
       7 -> 14        -0.14754
       8 -> 16        -0.15968
       9 -> 15         0.11747
      10 -> 17        -0.15553
      11 -> 20         0.56590
      12 -> 23         0.10369

 Excited State  31:      Singlet-A'    13.5519 eV   91.49 nm  f=0.0408  <S**2>=0.000
       9 -> 15         0.20328
      10 -> 17         0.48685
      10 -> 18         0.29569
      10 -> 19        -0.21723
      11 -> 20         0.10567
      11 -> 22        -0.10128

 Excited State  32:      Singlet-A'    13.6650 eV   90.73 nm  f=0.0704  <S**2>=0.000
       7 -> 14        -0.16585
       9 -> 14        -0.14892
       9 -> 17         0.14605
      10 -> 17        -0.14917
      10 -> 18         0.46018
      10 -> 19         0.36133

 Excited State  33:      Singlet-A"    13.7865 eV   89.93 nm  f=0.0286  <S**2>=0.000
      10 -> 20        -0.14323
      12 -> 26         0.65143

 Excited State  34:      Singlet-A"    13.8405 eV   89.58 nm  f=0.0000  <S**2>=0.000
       8 -> 14         0.15645
       8 -> 15        -0.25967
       8 -> 17         0.23853
       8 -> 21        -0.10210
      10 -> 16         0.10417
      10 -> 20        -0.18535
      10 -> 22         0.11312
      11 -> 18        -0.13302
      11 -> 21         0.46345

 Excited State  35:      Singlet-A'    13.9060 eV   89.16 nm  f=0.0470  <S**2>=0.000
       7 -> 14        -0.10654
       9 -> 15         0.52002
       9 -> 17        -0.19122
       9 -> 18        -0.14113
      10 -> 17        -0.12102
      10 -> 19        -0.12157
      10 -> 21         0.14869
      11 -> 20        -0.20546
      11 -> 22         0.12761

 Excited State  36:      Singlet-A"    14.0878 eV   88.01 nm  f=0.0491  <S**2>=0.000
       6 -> 13        -0.12806
       8 -> 14         0.10428
       9 -> 16         0.13461
      10 -> 16        -0.26750
      10 -> 20         0.44919
      10 -> 22        -0.20827
      11 -> 19         0.20205
      11 -> 21         0.14471
      12 -> 26         0.11491

 Excited State  37:      Singlet-A'    14.1302 eV   87.74 nm  f=0.0476  <S**2>=0.000
       7 -> 14         0.32795
       7 -> 15         0.19922
       9 -> 15         0.19507
       9 -> 17        -0.24997
      10 -> 19         0.36416
      10 -> 25         0.10345
      11 -> 20         0.10105
      11 -> 22        -0.14111

 Excited State  38:      Singlet-A"    14.2785 eV   86.83 nm  f=0.0003  <S**2>=0.000
       6 -> 13         0.45299
       8 -> 15         0.11905
       8 -> 18         0.18916
       8 -> 19         0.18197
      11 -> 21         0.18329
      11 -> 23        -0.16271
      11 -> 25        -0.12948
      12 -> 27        -0.29450

 Excited State  39:      Singlet-A'    14.4529 eV   85.79 nm  f=0.0828  <S**2>=0.000
       7 -> 14         0.10095
       7 -> 15        -0.23022
       7 -> 17         0.11610
       8 -> 16        -0.15392
       9 -> 15        -0.17330
       9 -> 17        -0.31224
      10 -> 18         0.14765
      10 -> 21         0.34117
      11 -> 22         0.20559
      12 -> 28         0.15739

 Excited State  40:      Singlet-A"    14.4708 eV   85.68 nm  f=0.0025  <S**2>=0.000
       6 -> 13         0.14638
       8 -> 15         0.14221
       8 -> 18         0.12929
       9 -> 16        -0.19754
      11 -> 21         0.13812
      11 -> 23        -0.11644
      12 -> 22        -0.11644
      12 -> 27         0.53564

 Excited State  41:      Singlet-A"    14.5763 eV   85.06 nm  f=0.0021  <S**2>=0.000
       8 -> 15         0.16650
       9 -> 16         0.53355
       9 -> 20        -0.17219
      10 -> 22         0.29423
      12 -> 27         0.12023

 Excited State  42:      Singlet-A'    14.5845 eV   85.01 nm  f=0.0300  <S**2>=0.000
       7 -> 14         0.42256
       7 -> 19        -0.13260
       8 -> 16        -0.13290
       9 -> 14        -0.13921
       9 -> 17         0.21480
       9 -> 18        -0.25133
      10 -> 15        -0.11452
      10 -> 18         0.13686
      11 -> 22         0.16195
      12 -> 28        -0.22636

 Excited State  43:      Singlet-A'    14.6522 eV   84.62 nm  f=0.1742  <S**2>=0.000
       7 -> 14         0.24989
       9 -> 19         0.12381
      10 -> 17        -0.12216
      10 -> 19        -0.18163
      12 -> 28         0.52608

 Excited State  44:      Singlet-A"    14.6836 eV   84.44 nm  f=0.0033  <S**2>=0.000
       6 -> 13        -0.27453
       8 -> 15         0.45356
       8 -> 19        -0.14760
       9 -> 16        -0.10013
      10 -> 22        -0.10313
      11 -> 18         0.14659
      11 -> 19        -0.12433
      11 -> 21         0.24471
      11 -> 24        -0.12142
      12 -> 27        -0.15806

 Excited State  45:      Singlet-A'    14.7890 eV   83.84 nm  f=0.0160  <S**2>=0.000
       7 -> 14        -0.12401
       7 -> 15         0.13715
       8 -> 16        -0.25436
       9 -> 17         0.21801
       9 -> 18         0.10166
      10 -> 17         0.23460
      10 -> 18        -0.13823
      10 -> 19         0.15863
      10 -> 25         0.11018
      11 -> 22         0.36104
      12 -> 28         0.13869

 Excited State  46:      Singlet-A"    14.9256 eV   83.07 nm  f=0.0181  <S**2>=0.000
       6 -> 13         0.19852
       8 -> 14         0.12775
       8 -> 15         0.11802
       8 -> 17        -0.11814
       8 -> 18        -0.35314
      11 -> 18        -0.13921
      11 -> 21         0.15587
      11 -> 23         0.40126
      11 -> 24         0.18472

 Excited State  47:      Singlet-A"    15.0663 eV   82.29 nm  f=0.0716  <S**2>=0.000
       6 -> 13        -0.15045
       8 -> 17        -0.15433
       8 -> 18         0.11674
       8 -> 19         0.15484
       8 -> 21         0.21224
      11 -> 21         0.14657
      11 -> 24         0.50472
      11 -> 25         0.18606

 Excited State  48:      Singlet-A'    15.1451 eV   81.86 nm  f=0.1333  <S**2>=0.000
       7 -> 15         0.33009
       8 -> 16        -0.14625
       8 -> 20        -0.11490
       9 -> 18         0.39553
      10 -> 15        -0.10355
      10 -> 17        -0.11799
      10 -> 19        -0.12527
      10 -> 21         0.11612
      10 -> 23         0.14008
      10 -> 25        -0.14809
      12 -> 28        -0.18903

 Excited State  49:      Singlet-A"    15.1724 eV   81.72 nm  f=0.0070  <S**2>=0.000
       7 -> 16         0.29143
       7 -> 20         0.11704
       9 -> 16         0.28535
       9 -> 20         0.39717
       9 -> 22        -0.11088
      10 -> 20        -0.13640
      10 -> 22        -0.25953

 Excited State  50:      Singlet-A'    15.2541 eV   81.28 nm  f=0.0884  <S**2>=0.000
       7 -> 15         0.14916
       9 -> 17         0.17779
       9 -> 18        -0.13675
       9 -> 19        -0.27526
      10 -> 18        -0.12649
      10 -> 21         0.36024
      10 -> 24        -0.16014
      11 -> 22        -0.26139
      12 -> 28         0.17719

 Excited State  51:      Singlet-A'    15.3026 eV   81.02 nm  f=0.0108  <S**2>=0.000
       7 -> 15         0.29807
       7 -> 17        -0.16286
       9 -> 15        -0.12121
       9 -> 17        -0.25094
       9 -> 18        -0.22342
       9 -> 19        -0.24098
       9 -> 21         0.12080
      10 -> 18         0.10634
      10 -> 21        -0.14517
      10 -> 25        -0.11065
      11 -> 22         0.15833
      12 -> 29        -0.17031

 Excited State  52:      Singlet-A"    15.4289 eV   80.36 nm  f=0.1537  <S**2>=0.000
       6 -> 13         0.18614
       8 -> 17         0.24465
       8 -> 18         0.15257
       8 -> 19        -0.14589
       9 -> 16        -0.13627
       9 -> 20         0.21177
      10 -> 20         0.18698
      10 -> 22         0.21084
      11 -> 23         0.14475
      11 -> 24         0.11001
      11 -> 25         0.30402

 Excited State  53:      Singlet-A'    15.4410 eV   80.30 nm  f=0.1742  <S**2>=0.000
       8 -> 16         0.36190
       8 -> 20         0.36647
       8 -> 22        -0.12959
       9 -> 18         0.14391
      10 -> 21         0.18258
      11 -> 20         0.14967
      11 -> 22         0.24803

 Excited State  54:      Singlet-A"    15.5961 eV   79.50 nm  f=0.0168  <S**2>=0.000
       8 -> 17        -0.25167
       8 -> 18        -0.15145
       8 -> 21         0.11480
       9 -> 20         0.37588
      10 -> 16        -0.10613
      10 -> 22         0.31173
      11 -> 23        -0.23654
      11 -> 24        -0.11870

 Excited State  55:      Singlet-A'    15.6592 eV   79.18 nm  f=0.0054  <S**2>=0.000
       7 -> 15         0.21194
       7 -> 17        -0.10528
       9 -> 15        -0.11301
       9 -> 18        -0.20053
       9 -> 19         0.41707
       9 -> 21         0.11295
      10 -> 21         0.15032
      10 -> 24        -0.29912
      12 -> 29         0.14986

 Excited State  56:      Singlet-A'    15.6957 eV   78.99 nm  f=0.0603  <S**2>=0.000
       7 -> 18        -0.20568
       7 -> 19        -0.17940
       8 -> 16         0.15482
       9 -> 19        -0.16521
       9 -> 21         0.13962
      12 -> 29         0.47619
      12 -> 32         0.12850

 Excited State  57:      Singlet-A"    15.6972 eV   78.98 nm  f=0.1381  <S**2>=0.000
       6 -> 13        -0.15086
       8 -> 18         0.24540
       8 -> 19         0.40096
       8 -> 21        -0.17009
       9 -> 20         0.13764
      10 -> 22         0.13540
      11 -> 23         0.32228
      11 -> 24        -0.14247

 Excited State  58:      Singlet-A'    15.9035 eV   77.96 nm  f=0.0360  <S**2>=0.000
       7 -> 18        -0.24644
       7 -> 19        -0.12654
       8 -> 16         0.25806
       8 -> 20        -0.18101
       9 -> 19         0.14398
       9 -> 21         0.17265
       9 -> 23        -0.10825
      10 -> 23         0.26613
      11 -> 22         0.11314
      12 -> 29        -0.26218
      12 -> 30         0.12610
      12 -> 32        -0.10116

 Excited State  59:      Singlet-A"    15.9087 eV   77.93 nm  f=0.0900  <S**2>=0.000
       8 -> 17         0.39597
       8 -> 24        -0.13703
      10 -> 22         0.11677
      11 -> 23        -0.10476
      11 -> 24         0.25220
      11 -> 25        -0.38275

 Excited State  60:      Singlet-A'    15.9622 eV   77.67 nm  f=0.1341  <S**2>=0.000
       7 -> 18        -0.18521
       7 -> 19        -0.12087
       8 -> 16        -0.25693
       8 -> 20         0.42403
       8 -> 22        -0.11065
       9 -> 21         0.19305
       9 -> 23        -0.10493
      10 -> 23         0.12910
      11 -> 22        -0.19629
      11 -> 26        -0.12838

 Excited State  61:      Singlet-A'    16.0588 eV   77.21 nm  f=0.0044  <S**2>=0.000
       7 -> 15        -0.19043
       9 -> 18         0.13062
       9 -> 21         0.11391
      10 -> 23        -0.19280
      10 -> 24        -0.14478
      10 -> 25        -0.17060
      12 -> 30         0.50473
      12 -> 32         0.13762

 Excited State  62:      Singlet-A'    16.1073 eV   76.97 nm  f=0.0316  <S**2>=0.000
       7 -> 15         0.12722
       7 -> 17         0.31889
       7 -> 18        -0.10203
       7 -> 19        -0.21928
       9 -> 21        -0.30836
      10 -> 19        -0.12581
      12 -> 30         0.26223
      12 -> 32         0.19489

 Excited State  63:      Singlet-A'    16.1985 eV   76.54 nm  f=0.1782  <S**2>=0.000
       7 -> 17        -0.24457
       7 -> 21         0.15526
       9 -> 21         0.10620
      10 -> 17         0.10619
      10 -> 21         0.18986
      10 -> 24         0.36928
      10 -> 25         0.34175
      12 -> 30         0.17666

 Excited State  64:      Singlet-A"    16.2700 eV   76.20 nm  f=0.0558  <S**2>=0.000
       7 -> 16         0.54162
       9 -> 22         0.26632
      10 -> 20         0.17129
      10 -> 22         0.19583
      10 -> 27        -0.11622

 Excited State  65:      Singlet-A"    16.4319 eV   75.45 nm  f=0.0000  <S**2>=0.000
       8 -> 18         0.25575
       8 -> 19        -0.30355
       8 -> 21         0.31848
       8 -> 23         0.20118
      11 -> 23         0.22827
      11 -> 25        -0.27075

 Excited State  66:      Singlet-A'    16.5262 eV   75.02 nm  f=0.0550  <S**2>=0.000
       7 -> 17         0.17336
       7 -> 18         0.22227
       7 -> 19        -0.23552
       8 -> 16         0.10544
       9 -> 18         0.10864
       9 -> 19        -0.12665
       9 -> 21         0.25572
       9 -> 23         0.13705
       9 -> 24         0.13398
      10 -> 18         0.12778
      10 -> 19        -0.10568
      10 -> 23        -0.23631
      10 -> 24        -0.13470
      10 -> 25         0.25104

 Excited State  67:      Singlet-A"    16.6167 eV   74.61 nm  f=0.1741  <S**2>=0.000
       7 -> 20        -0.27167
      11 -> 25         0.10445
      12 -> 31         0.59130

 Excited State  68:      Singlet-A'    16.6611 eV   74.42 nm  f=0.0265  <S**2>=0.000
       7 -> 17         0.18689
       7 -> 18         0.13331
       7 -> 19         0.16751
       9 -> 21         0.24488
      10 -> 23         0.10285
      12 -> 29        -0.11629
      12 -> 30        -0.12097
      12 -> 32         0.42907
      12 -> 33         0.22921
      12 -> 43         0.10982

 Excited State  69:      Singlet-A'    16.8051 eV   73.78 nm  f=0.0488  <S**2>=0.000
       6 -> 14        -0.13285
       7 -> 17         0.16579
       7 -> 18        -0.17493
       7 -> 21         0.16842
       9 -> 17         0.10601
       9 -> 19         0.15711
       9 -> 21         0.16220
      10 -> 21         0.12557
      10 -> 23        -0.27630
      10 -> 24         0.29610
      10 -> 25        -0.26896

 Excited State  70:      Singlet-A"    16.8144 eV   73.74 nm  f=0.0728  <S**2>=0.000
       7 -> 20         0.52620
       7 -> 22        -0.10788
       9 -> 16        -0.10231
      10 -> 26        -0.10801
      11 -> 25        -0.11901
      12 -> 31         0.30757

 Excited State  71:      Singlet-A'    16.8383 eV   73.63 nm  f=0.0586  <S**2>=0.000
       7 -> 17        -0.24316

 The electronic state is 1-A'.
 Alpha  occ. eigenvalues --  -18.98556 -10.22070 -10.13449  -1.18149  -0.90101
 Alpha  occ. eigenvalues --   -0.71623  -0.61595  -0.58199  -0.56962  -0.52517
 Alpha  occ. eigenvalues --   -0.49555  -0.38032
 Alpha virt. eigenvalues --    0.06494   0.08962   0.11527   0.15751   0.16071
 Alpha virt. eigenvalues --    0.18122   0.19403   0.19471   0.20247   0.23826
 Alpha virt. eigenvalues --    0.25838   0.26917   0.28434   0.32250   0.34454

 Mulliken charges:
               1
     1  C    0.158376
     2  C    0.008642
     3  O   -0.295126
     4  H    0.103631
     5  H    0.103631
     6  H    0.021154
     7  H   -0.100307
 Sum of Mulliken charges =  -0.00000

 Dipole moment (field-independent basis, Debye):
    X=              2.9529    Y=             -0.3032    Z=             -0.0000  Tot=              2.9684
 Quadrupole moment (field-independent basis, Debye-Ang):
   XX=            -21.2457   YY=            -17.8181   ZZ=            -17.8879
   XY=              0.8800   XZ=             -0.0000   YZ=              0.0000

 Normal termination of Gaussian 16 at Mon Mar 21 20:21:06 2022.
