 Gaussian 16, Revision C.01,
 Gaussian 16:  EM64L-G16RevC.01  3-Jul-2019

 ----------------------------------------------------------------------
 #P TD(Nstates=10000) wB97XD/def2SVP SCF(maxcycles=100) Int(Grid=ultraf
 ine)
 ----------------------------------------------------------------------

 ---------------------
 xGDB7_00001_tier4.com
 ---------------------
 Symbolic Z-matrix:
 Charge =  0 Multiplicity = 1

                         Standard orientation:
 ---------------------------------------------------------------------
 Center     Atomic      Atomic             Coordinates (Angstroms)
 Number     Number       Type             X           Y           Z
 ---------------------------------------------------------------------
      1          6           0       -0.000002    0.000002   -0.000001
      2          1           0        0.522735   -0.218730    0.940345
      3          1           0       -0.998021    0.400732    0.220726
      4          1           0       -0.097687   -0.922308   -0.587489
      5          1           0        0.572987    0.740295   -0.573577
 ---------------------------------------------------------------------

 SCF Done:  E(RwB97XD) =  -40.4731585598     A.U. after   11 cycles

 Excitation energies and oscillator strengths:

 Excited State   1:      Singlet-A     11.8959 eV  104.22 nm  f=0.2258  <S**2>=0.000
       5 ->  6         0.70435
 This state for optimization and/or second-order correction.
 Total Energy, E(TD-HF/TD-DFT) =  -40.0359917548
 Copying the excited state density for this state as the 1-particle RhoCI density.

 Excited State   2:      Singlet-A     11.8960 eV  104.22 nm  f=0.2258  <S**2>=0.000
       4 ->  6         0.70385

 Excited State   3:      Singlet-A     11.8960 eV  104.22 nm  f=0.2258  <S**2>=0.000
       3 ->  6         0.70381

 Excited State   4:      Singlet-A     13.4476 eV   92.20 nm  f=0.0000  <S**2>=0.000
       3 ->  8         0.21519
       4 ->  7        -0.26404
       4 ->  8        -0.38355
       5 ->  7         0.41440
       5 ->  8        -0.22927

 Excited State   5:      Singlet-A     13.4477 eV   92.20 nm  f=0.0000  <S**2>=0.000
       3 ->  7        -0.36538
       3 ->  8        -0.21964
       3 ->  9        -0.24442
       4 ->  7        -0.19908
       4 ->  9         0.20525
       5 ->  7        -0.17789
       5 ->  9         0.37383

 Excited State   6:      Singlet-A     13.4477 eV   92.20 nm  f=0.0000  <S**2>=0.000
       3 ->  7        -0.17442
       3 ->  8         0.39118
       3 ->  9        -0.16036
       4 ->  7        -0.14561
       4 ->  8         0.20219
       4 ->  9         0.36614
       5 ->  9        -0.29345

 Excited State   7:      Singlet-A     13.6511 eV   90.82 nm  f=0.0000  <S**2>=0.000
       3 ->  7        -0.11877
       3 ->  8        -0.26214
       4 ->  7        -0.15735
       4 ->  8         0.33627
       4 ->  9        -0.13883
       5 ->  7         0.45978
       5 ->  8         0.19654

 Excited State   8:      Singlet-A     13.6513 eV   90.82 nm  f=0.0000  <S**2>=0.000
       3 ->  9         0.48229
       4 ->  7        -0.27275
       4 ->  8         0.29431
       4 ->  9         0.11932
       5 ->  8        -0.14087
       5 ->  9         0.24012

 Excited State   9:      Singlet-A     13.8743 eV   89.36 nm  f=0.4249  <S**2>=0.000
       3 ->  7         0.18999
       4 ->  7        -0.37907
       4 ->  8        -0.17036
       4 ->  9        -0.13108
       5 ->  7        -0.16446
       5 ->  8         0.48258

 Excited State  10:      Singlet-A     13.8743 eV   89.36 nm  f=0.4249  <S**2>=0.000
       3 ->  7         0.28359
       3 ->  8         0.24671
       3 ->  9        -0.25084
       4 ->  7         0.20176
       4 ->  8         0.17448
       5 ->  7         0.12456
       5 ->  8         0.12952
       5 ->  9         0.42306

 Excited State  11:      Singlet-A     13.8743 eV   89.36 nm  f=0.4249  <S**2>=0.000
       3 ->  7         0.36993
       3 ->  8        -0.32809
       4 ->  9         0.46409
       5 ->  9        -0.10426

 Excited State  12:      Singlet-A     15.0455 eV   82.41 nm  f=0.0000  <S**2>=0.000
       3 ->  7        -0.23125
       3 ->  9         0.32024
       4 ->  7         0.27311
       4 ->  8        -0.19087
       4 ->  9         0.21401
       5 ->  7         0.16956
       5 ->  8         0.34579

 Excited State  13:      Singlet-A     20.5623 eV   60.30 nm  f=0.0000  <S**2>=0.000
       3 -> 10        -0.29350
       4 -> 10         0.20052
       4 -> 11        -0.33753
       5 -> 10         0.39164
       5 -> 11         0.20539
       5 -> 12        -0.24138

 Excited State  14:      Singlet-A     20.5624 eV   60.30 nm  f=0.0000  <S**2>=0.000
       3 -> 10         0.14378
       3 -> 11         0.27974
       3 -> 12         0.37909
       4 -> 10         0.13429
       4 -> 11        -0.26562
       4 -> 12         0.29778
       5 -> 10        -0.11805
       5 -> 11         0.16518
       5 -> 12         0.19294

 Excited State  15:      Singlet-A     20.5817 eV   60.24 nm  f=0.0000  <S**2>=0.000
       2 ->  6         0.67234
       3 -> 12         0.11123
       4 -> 11         0.11199
       5 -> 10         0.11043

 Excited State  16:      Singlet-A     20.6742 eV   59.97 nm  f=0.0000  <S**2>=0.000
       3 -> 10        -0.14373
       3 -> 11         0.16093
       4 -> 10         0.46920
       5 -> 11        -0.45082
       5 -> 12         0.13699

 Excited State  17:      Singlet-A     20.6743 eV   59.97 nm  f=0.0000  <S**2>=0.000
       3 -> 10        -0.41569
       3 -> 11        -0.26563
       4 -> 12         0.24427
       5 -> 12         0.42379

 Excited State  18:      Singlet-A     20.6744 eV   59.97 nm  f=0.0000  <S**2>=0.000
       3 -> 10         0.22420
       3 -> 11        -0.39087
       4 -> 10         0.15101
       4 -> 12         0.42481
       5 -> 11        -0.21095
       5 -> 12        -0.21302

 Excited State  19:      Singlet-A     21.8708 eV   56.69 nm  f=0.2728  <S**2>=0.000
       2 ->  7         0.24734
       2 ->  8         0.32958
       3 -> 10        -0.18272
       3 -> 11         0.23183
       3 -> 12        -0.11101
       4 -> 11         0.26198
       4 -> 12         0.24968
       5 -> 10        -0.14932
       5 -> 12        -0.21428

 Excited State  20:      Singlet-A     21.8708 eV   56.69 nm  f=0.2728  <S**2>=0.000
       2 ->  7         0.18777
       2 ->  8        -0.15574
       2 ->  9         0.33236
       3 -> 10         0.17172
       3 -> 11        -0.10244
       3 -> 12        -0.15653
       4 -> 10         0.31784
       4 -> 11         0.15249
       5 -> 11         0.30932
       5 -> 12         0.14846

 Excited State  21:      Singlet-A     21.8708 eV   56.69 nm  f=0.2728  <S**2>=0.000
       2 ->  7         0.27129
       2 ->  8        -0.19268
       2 ->  9        -0.24349
       3 -> 10         0.16394
       3 -> 11         0.20520
       3 -> 12        -0.27758
       4 -> 10        -0.12296
       4 -> 12         0.18266
       5 -> 10         0.28153
       5 -> 12         0.16976

 Excited State  22:      Singlet-A     21.9703 eV   56.43 nm  f=0.0000  <S**2>=0.000
       2 ->  6        -0.16530
       3 -> 12         0.37817
       4 -> 11         0.38214
       5 -> 10         0.37771

 Excited State  23:      Singlet-A     22.3524 eV   55.47 nm  f=0.1072  <S**2>=0.000
       2 ->  7         0.32272
       2 ->  8         0.17625
       2 ->  9         0.43503
       4 -> 10        -0.21447
       4 -> 11        -0.19818
       5 -> 10         0.10713
       5 -> 11        -0.22198

 Excited State  24:      Singlet-A     22.3524 eV   55.47 nm  f=0.1072  <S**2>=0.000
       2 ->  7        -0.11812
       2 ->  8         0.54141
       2 ->  9        -0.13173
       3 -> 10         0.21244
       3 -> 12        -0.11002
       5 -> 10         0.15886
       5 -> 12         0.21779

 Excited State  25:      Singlet-A     22.3525 eV   55.47 nm  f=0.1072  <S**2>=0.000
       2 ->  7         0.45420
       2 ->  9        -0.34332
       3 -> 11        -0.21633
       3 -> 12         0.19539
       4 -> 12        -0.20443
       5 -> 10        -0.12281

 Excited State  26:      Singlet-A     27.3384 eV   45.35 nm  f=0.0885  <S**2>=0.000
       3 -> 13        -0.12954
       5 -> 13         0.67491

 Excited State  27:      Singlet-A     27.3385 eV   45.35 nm  f=0.0885  <S**2>=0.000
       4 -> 13         0.68638

 Excited State  28:      Singlet-A     27.3386 eV   45.35 nm  f=0.0885  <S**2>=0.000
       3 -> 13         0.67448
       5 -> 13         0.13105

 Excited State  29:      Singlet-A     27.5604 eV   44.99 nm  f=0.0000  <S**2>=0.000
       3 -> 15         0.26743
       4 -> 14        -0.33315
       4 -> 15        -0.31066
       5 -> 14         0.36720
       5 -> 15        -0.22997
       5 -> 16         0.10276

 Excited State  30:      Singlet-A     27.5605 eV   44.99 nm  f=0.0000  <S**2>=0.000
       3 -> 14         0.38735
       3 -> 15         0.12359
       3 -> 16         0.28383
       4 -> 14         0.19909
       4 -> 16        -0.28022
       5 -> 14         0.24207
       5 -> 16        -0.24927

 Excited State  31:      Singlet-A     27.5607 eV   44.99 nm  f=0.0000  <S**2>=0.000
       3 -> 15        -0.39463
       4 -> 15        -0.28642
       4 -> 16        -0.27100
       5 -> 16         0.40659

 Excited State  32:      Singlet-A     27.5915 eV   44.94 nm  f=0.0000  <S**2>=0.000
       3 -> 14        -0.13366
       3 -> 15        -0.25714
       4 -> 14        -0.12578
       4 -> 15         0.33861
       4 -> 16        -0.16229
       5 -> 14         0.47245
       5 -> 15         0.16221

 Excited State  33:      Singlet-A     27.5920 eV   44.93 nm  f=0.0000  <S**2>=0.000
       3 -> 16         0.48114
       4 -> 14        -0.25571
       4 -> 15         0.31777
       5 -> 15        -0.12448
       5 -> 16         0.24271

 Excited State  34:      Singlet-A     28.1622 eV   44.02 nm  f=0.1290  <S**2>=0.000
       3 -> 14         0.25081
       3 -> 17        -0.13472
       4 -> 14        -0.38345
       4 -> 15        -0.16765
       5 -> 15         0.42489

 Excited State  35:      Singlet-A     28.1623 eV   44.02 nm  f=0.1290  <S**2>=0.000
       3 -> 14         0.40143
       3 -> 16        -0.20847
       4 -> 14         0.17075
       4 -> 15         0.11974
       4 -> 16         0.26236
       4 -> 17         0.14435
       5 -> 14         0.14305
       5 -> 16         0.31400

 Excited State  36:      Singlet-A     28.1624 eV   44.02 nm  f=0.1291  <S**2>=0.000
       3 -> 15         0.38739
       3 -> 16        -0.10435
       4 -> 16        -0.38471
       5 -> 15         0.22654
       5 -> 16         0.25412
       5 -> 17        -0.13972

 Excited State  37:      Singlet-A     29.4410 eV   42.11 nm  f=0.0556  <S**2>=0.000
       2 -> 10         0.69604

 Excited State  38:      Singlet-A     29.4410 eV   42.11 nm  f=0.0556  <S**2>=0.000
       2 -> 11         0.69603

 Excited State  39:      Singlet-A     29.4411 eV   42.11 nm  f=0.0556  <S**2>=0.000
       2 -> 12         0.69633

 Excited State  40:      Singlet-A     30.7947 eV   40.26 nm  f=0.0265  <S**2>=0.000
       3 -> 17        -0.18165
       5 -> 17         0.65156

 Excited State  41:      Singlet-A     30.7947 eV   40.26 nm  f=0.0265  <S**2>=0.000
       3 -> 17        -0.35065
       4 -> 17         0.56069
       5 -> 17        -0.15894

 Excited State  42:      Singlet-A     30.7947 eV   40.26 nm  f=0.0265  <S**2>=0.000
       3 -> 17         0.55375
       4 -> 17         0.37837
       5 -> 17         0.11310

 Excited State  43:      Singlet-A     31.7030 eV   39.11 nm  f=0.0000  <S**2>=0.000
       2 ->  6         0.10722
       2 -> 13         0.31637
       3 -> 14        -0.21927
       3 -> 16         0.27446
       4 -> 14         0.22264
       4 -> 15        -0.17728
       4 -> 16         0.21298
       5 -> 14         0.16943
       5 -> 15         0.30326

 Excited State  44:      Singlet-A     36.2858 eV   34.17 nm  f=0.1069  <S**2>=0.000
       2 -> 14         0.66622
       2 -> 15         0.21093

 Excited State  45:      Singlet-A     36.2859 eV   34.17 nm  f=0.1069  <S**2>=0.000
       2 -> 14        -0.21942
       2 -> 15         0.63237
       2 -> 16        -0.20983

 Excited State  46:      Singlet-A     36.2860 eV   34.17 nm  f=0.1069  <S**2>=0.000
       2 -> 15         0.21837
       2 -> 16         0.66657

 Excited State  47:      Singlet-A     38.0484 eV   32.59 nm  f=0.0000  <S**2>=0.000
       2 -> 13         0.62571
       3 -> 14         0.10580
       3 -> 16        -0.13243
       4 -> 14        -0.10743
       4 -> 16        -0.10277
       5 -> 15        -0.14633

 Excited State  48:      Singlet-A     38.3931 eV   32.29 nm  f=0.0000  <S**2>=0.000
       3 -> 18         0.54078
       3 -> 19        -0.28913
       4 -> 18         0.29675
       5 -> 18         0.17792

 Excited State  49:      Singlet-A     38.3933 eV   32.29 nm  f=0.0000  <S**2>=0.000
       3 -> 18        -0.22957
       3 -> 19        -0.21064
       4 -> 18         0.29668
       4 -> 19         0.42681
       5 -> 18        -0.27153
       5 -> 19         0.24268

 Excited State  50:      Singlet-A     38.3938 eV   32.29 nm  f=0.0000  <S**2>=0.000
       3 -> 19        -0.15406
       4 -> 18        -0.34621
       4 -> 19        -0.14614
       5 -> 19         0.57574

 Excited State  51:      Singlet-A     38.7663 eV   31.98 nm  f=0.0000  <S**2>=0.000
       2 -> 17         0.70224

 Excited State  52:      Singlet-A     40.4944 eV   30.62 nm  f=1.1100  <S**2>=0.000
       3 -> 18        -0.18676
       3 -> 19         0.10303
       4 -> 19         0.22874
       5 -> 18         0.60355
       5 -> 19         0.14502

 Excited State  53:      Singlet-A     40.4949 eV   30.62 nm  f=1.1099  <S**2>=0.000
       3 -> 18         0.13454
       3 -> 19         0.53721
       4 -> 18         0.28737
       5 -> 18        -0.10076
       5 -> 19         0.27858

 Excited State  54:      Singlet-A     40.4951 eV   30.62 nm  f=1.1099  <S**2>=0.000
       3 -> 18         0.30655
       3 -> 19         0.19509
       4 -> 18        -0.33743
       4 -> 19         0.47661

 Excited State  55:      Singlet-A     47.4854 eV   26.11 nm  f=0.0000  <S**2>=0.000
       2 -> 18         0.69906

 Excited State  56:      Singlet-A     47.4858 eV   26.11 nm  f=0.0000  <S**2>=0.000
       2 -> 19         0.69905

 Excited State  57:      Singlet-A     50.6358 eV   24.49 nm  f=0.0000  <S**2>=0.000
       3 -> 21        -0.23957
       3 -> 22        -0.19832
       4 -> 20        -0.27893
       4 -> 21        -0.10047
       4 -> 22         0.14098
       5 -> 20         0.37262
       5 -> 21        -0.34779
       5 -> 22         0.16503

 Excited State  58:      Singlet-A     50.6358 eV   24.49 nm  f=0.0000  <S**2>=0.000
       3 -> 21         0.28058
       3 -> 22         0.17553
       4 -> 20        -0.25430
       4 -> 21         0.13462
       4 -> 22         0.33849
       5 -> 20        -0.31559
       5 -> 21        -0.29891

 Excited State  59:      Singlet-A     50.6360 eV   24.49 nm  f=0.0000  <S**2>=0.000
       3 -> 21        -0.24591
       3 -> 22         0.46680
       4 -> 20        -0.30973
       4 -> 21        -0.23814
       4 -> 22        -0.20416

 Excited State  60:      Singlet-A     50.7729 eV   24.42 nm  f=0.0000  <S**2>=0.000
       3 -> 20         0.22673
       3 -> 22         0.33209
       4 -> 20         0.17213
       4 -> 21         0.31880
       4 -> 22        -0.18803
       5 -> 20         0.29231
       5 -> 21        -0.24397
       5 -> 22        -0.14624

 Excited State  61:      Singlet-A     50.8990 eV   24.36 nm  f=0.0000  <S**2>=0.000
       3 -> 20         0.49130
       3 -> 21         0.11956
       4 -> 20         0.15916
       4 -> 21        -0.18531
       4 -> 22         0.26421
       5 -> 21         0.23540
       5 -> 22         0.20166

 Excited State  62:      Singlet-A     50.8995 eV   24.36 nm  f=0.0000  <S**2>=0.000
       3 -> 20         0.13198
       3 -> 21        -0.20255
       3 -> 22        -0.10931
       4 -> 21         0.42369
       4 -> 22        -0.14068
       5 -> 20        -0.19029
       5 -> 22         0.42633

 Excited State  63:      Singlet-A     50.9789 eV   24.32 nm  f=0.1823  <S**2>=0.000
       3 -> 20        -0.16281
       3 -> 21         0.33634
       4 -> 20        -0.33365
       4 -> 21         0.16475
       5 -> 20         0.32241
       5 -> 21         0.31584
       5 -> 22         0.11720

 Excited State  64:      Singlet-A     50.9791 eV   24.32 nm  f=0.1823  <S**2>=0.000
       3 -> 20        -0.37078
       3 -> 22         0.25343
       4 -> 20         0.30510
       4 -> 22         0.14300
       5 -> 20         0.10787
       5 -> 21        -0.10397
       5 -> 22         0.39176

 Excited State  65:      Singlet-A     50.9794 eV   24.32 nm  f=0.1823  <S**2>=0.000
       3 -> 21        -0.35717
       3 -> 22         0.13845
       4 -> 21         0.25060
       4 -> 22         0.41901
       5 -> 21         0.22148
       5 -> 22        -0.22471

 Excited State  66:      Singlet-A     56.4667 eV   21.96 nm  f=0.0000  <S**2>=0.000
       3 -> 23         0.34524
       3 -> 25         0.19852
       4 -> 23        -0.13049
       4 -> 24        -0.22059
       4 -> 25         0.31311
       5 -> 23        -0.17457
       5 -> 24         0.33161
       5 -> 25         0.16338

 Excited State  67:      Singlet-A     56.4873 eV   21.95 nm  f=0.0000  <S**2>=0.000
       3 -> 23        -0.10799
       3 -> 24         0.24995
       3 -> 25         0.14254
       4 -> 24        -0.33446
       4 -> 25         0.18983
       5 -> 23         0.47064
       5 -> 24        -0.12770
       5 -> 25        -0.13680

 Excited State  68:      Singlet-A     56.4875 eV   21.95 nm  f=0.0000  <S**2>=0.000
       3 -> 23         0.12590
       3 -> 25         0.46544
       4 -> 23         0.25036
       4 -> 24         0.35103
       5 -> 23         0.14015
       5 -> 24        -0.11454
       5 -> 25         0.20506

 Excited State  69:      Singlet-A     56.8513 eV   21.81 nm  f=0.0000  <S**2>=0.000
       3 -> 24         0.29180
       3 -> 25        -0.18935
       4 -> 23         0.42035
       4 -> 24        -0.22517
       5 -> 23        -0.23568
       5 -> 24        -0.22227
       5 -> 25         0.20301

 Excited State  70:      Singlet-A     56.8519 eV   21.81 nm  f=0.0000  <S**2>=0.000
       3 -> 23        -0.25553
       3 -> 24         0.13502
       3 -> 25         0.38645
       4 -> 23        -0.20713
       4 -> 24        -0.16271
       4 -> 25        -0.20078
       5 -> 23        -0.35544
       5 -> 24        -0.14226

 Excited State  71:      Singlet-A     56.8527 eV   21.81 nm  f=0.0000  <S**2>=0.000
       3 -> 24        -0.36779
       4 -> 24        -0.31137
       4 -> 25        -0.24326
       5 -> 23         0.14799
       5 -> 24        -0.11993
       5 -> 25         0.39968

 Excited State  72:      Singlet-A     57.4796 eV   21.57 nm  f=0.0785  <S**2>=0.000
       3 -> 23         0.44364
       4 -> 23        -0.26958
       5 -> 24        -0.44291
       5 -> 25        -0.12643

 Excited State  73:      Singlet-A     57.4797 eV   21.57 nm  f=0.0785  <S**2>=0.000
       3 -> 23        -0.20811
       3 -> 24         0.26541
       3 -> 25        -0.15888
       4 -> 23        -0.34407
       4 -> 24         0.19006
       4 -> 25         0.10758
       5 -> 25         0.42838

 Excited State  74:      Singlet-A     57.4798 eV   21.57 nm  f=0.0785  <S**2>=0.000
       3 -> 23        -0.19468
       3 -> 24        -0.33055
       4 -> 25         0.49913
       5 -> 23        -0.13900
       5 -> 24        -0.26956

 Excited State  75:      Singlet-A     58.8926 eV   21.05 nm  f=0.0000  <S**2>=0.000
       2 -> 20         0.69957

 Excited State  76:      Singlet-A     58.8927 eV   21.05 nm  f=0.0000  <S**2>=0.000
       2 -> 21         0.70312

 Excited State  77:      Singlet-A     58.8930 eV   21.05 nm  f=0.0000  <S**2>=0.000
       2 -> 22         0.69911

 Excited State  78:      Singlet-A     65.1179 eV   19.04 nm  f=0.0245  <S**2>=0.000
       2 -> 23         0.69197

 Excited State  79:      Singlet-A     65.1182 eV   19.04 nm  f=0.0245  <S**2>=0.000
       2 -> 24         0.64187
       2 -> 25        -0.28142

 Excited State  80:      Singlet-A     65.1184 eV   19.04 nm  f=0.0245  <S**2>=0.000
       2 -> 23         0.11127
       2 -> 24         0.27593
       2 -> 25         0.63472

 Excited State  81:      Singlet-A     66.3569 eV   18.68 nm  f=0.0000  <S**2>=0.000
       4 -> 26         0.46857
       4 -> 27        -0.13319
       4 -> 28        -0.10836
       5 -> 27        -0.46246
       5 -> 28         0.16140

 Excited State  82:      Singlet-A     66.3571 eV   18.68 nm  f=0.0000  <S**2>=0.000
       3 -> 26         0.47625
       3 -> 28        -0.14509
       5 -> 26        -0.14822
       5 -> 27        -0.12788
       5 -> 28        -0.44711

 Excited State  83:      Singlet-A     66.3571 eV   18.68 nm  f=0.0000  <S**2>=0.000
       3 -> 27         0.48164
       3 -> 28        -0.13057
       4 -> 26        -0.14061
       4 -> 27        -0.12445
       4 -> 28        -0.45075

 Excited State  84:      Singlet-A     66.5716 eV   18.62 nm  f=0.0000  <S**2>=0.000
       3 -> 26         0.37695
       4 -> 27         0.28447
       5 -> 26        -0.26197
       5 -> 28         0.44707

 Excited State  85:      Singlet-A     66.5716 eV   18.62 nm  f=0.0000  <S**2>=0.000
       3 -> 26        -0.24859
       3 -> 27        -0.29941
       3 -> 28        -0.19620
       4 -> 26        -0.21652
       4 -> 27         0.32856
       4 -> 28        -0.30605
       5 -> 26        -0.10224
       5 -> 27        -0.22350

 Excited State  86:      Singlet-A     66.8402 eV   18.55 nm  f=0.0000  <S**2>=0.000
       3 -> 26         0.12265
       3 -> 27         0.10216

 The electronic state is 1-A.
 Alpha  occ. eigenvalues --  -10.28354  -0.77981  -0.47275  -0.47275  -0.47275
 Alpha virt. eigenvalues --    0.15679   0.22697   0.22697   0.22697   0.50816
 Alpha virt. eigenvalues --    0.50817   0.50817   0.73997   0.77310   0.77310
 Alpha virt. eigenvalues --    0.77310   0.86694   1.17768   1.17768   1.61861

 Mulliken charges:
               1
     1  C   -0.197702
     2  H    0.049422
     3  H    0.049428
     4  H    0.049426
     5  H    0.049425
 Sum of Mulliken charges =  -0.00000

 Dipole moment (field-independent basis, Debye):
    X=              0.0000    Y=             -0.0000    Z=             -0.0000  Tot=              0.0000
 Quadrupole moment (field-independent basis, Debye-Ang):
   XX=             -8.2531   YY=             -8.2532   ZZ=             -8.2532
   XY=              0.0000   XZ=             -0.0000   YZ=              0.0000

 Normal termination of Gaussian 16 at Sat Aug 14 07:22:32 2021.
