 Gaussian 16, Revision C.01,
 Gaussian 16:  EM64L-G16RevC.01  3-Jul-2019

 ----------------------------------------------------------------------
 #P TD(Nstates=10000) wB97XD/def2SVP SCF(maxcycles=100) Int(Grid=ultraf
 ine)
 ----------------------------------------------------------------------

 ---------------------
 xGDB7_00001_tier4.com
 ---------------------
 Symbolic Z-matrix:
 Charge =  0 Multiplicity = 1

                         Standard orientation:
 ---------------------------------------------------------------------
 Center     Atomic      Atomic             Coordinates (Angstroms)
 Number     Number       Type             X           Y           Z
 ---------------------------------------------------------------------
      1          6           0       -1.209078   -0.236217   -0.021416
      2          6           0        0.091406    0.549498    0.046283
      3          8           0        1.229954   -0.258809   -0.108036
      4          1           0       -2.080825    0.432379    0.045432
      5          1           0       -1.279382   -0.958023    0.809192
      6          1           0       -1.270180   -0.797646   -0.965421
      7          1           0        0.130326    1.129547    0.990213
      8          1           0        0.126056    1.284806   -0.772304
      9          1           0        1.240401   -0.900271    0.607980
 ---------------------------------------------------------------------

 SCF Done:  E(RwB97XD) =  -154.876577279     A.U. after   13 cycles

 Excitation energies and oscillator strengths:

 Excited State   1:      Singlet-A      7.9260 eV  156.43 nm  f=0.0038  <S**2>=0.000
      13 -> 14         0.64755
      13 -> 15        -0.24861
 This state for optimization and/or second-order correction.
 Total Energy, E(TD-HF/TD-DFT) =  -154.585300779
 Copying the excited state density for this state as the 1-particle RhoCI density.

 Excited State   2:      Singlet-A      9.4652 eV  130.99 nm  f=0.0184  <S**2>=0.000
      12 -> 14         0.28952
      13 -> 14         0.21469
      13 -> 15         0.56181
      13 -> 16        -0.14559
      13 -> 18         0.11297

 Excited State   3:      Singlet-A      9.6347 eV  128.69 nm  f=0.0136  <S**2>=0.000
      12 -> 14         0.60938
      12 -> 15        -0.12026
      13 -> 14        -0.10042
      13 -> 15        -0.26665

 Excited State   4:      Singlet-A     10.0558 eV  123.30 nm  f=0.0068  <S**2>=0.000
      13 -> 14         0.11910
      13 -> 16         0.58670
      13 -> 17        -0.32487
      13 -> 20         0.12915

 Excited State   5:      Singlet-A     10.2316 eV  121.18 nm  f=0.1432  <S**2>=0.000
      13 -> 15         0.14919
      13 -> 16         0.32662
      13 -> 17         0.58797
      13 -> 19         0.11768

 Excited State   6:      Singlet-A     10.6981 eV  115.89 nm  f=0.0126  <S**2>=0.000
      10 -> 14        -0.13868
      11 -> 14         0.36763
      12 -> 14         0.14252
      12 -> 15         0.53513
      12 -> 17        -0.11848

 Excited State   7:      Singlet-A     11.0436 eV  112.27 nm  f=0.0358  <S**2>=0.000
      10 -> 14         0.14843
      11 -> 14        -0.10471
      13 -> 18         0.63150
      13 -> 20         0.12704

 Excited State   8:      Singlet-A     11.2037 eV  110.66 nm  f=0.1665  <S**2>=0.000
      11 -> 14         0.56480
      12 -> 15        -0.36150
      13 -> 18         0.12151

 Excited State   9:      Singlet-A     11.3248 eV  109.48 nm  f=0.1383  <S**2>=0.000
      10 -> 14        -0.42510
      12 -> 16         0.47161
      12 -> 17        -0.12846
      13 -> 18         0.10778
      13 -> 19         0.14348

 Excited State  10:      Singlet-A     11.3725 eV  109.02 nm  f=0.0223  <S**2>=0.000
      12 -> 16        -0.16548
      13 -> 17        -0.11605
      13 -> 19         0.65496

 Excited State  11:      Singlet-A     11.5389 eV  107.45 nm  f=0.0957  <S**2>=0.000
      10 -> 14         0.46104
      11 -> 15         0.11703
      12 -> 15         0.12008
      12 -> 16         0.41850
      13 -> 18        -0.11541
      13 -> 20         0.13481

 Excited State  12:      Singlet-A     11.6543 eV  106.38 nm  f=0.1353  <S**2>=0.000
      12 -> 15         0.12375
      12 -> 16         0.15871
      12 -> 17         0.64715

 Excited State  13:      Singlet-A     11.8678 eV  104.47 nm  f=0.0038  <S**2>=0.000
      10 -> 14        -0.13629
      10 -> 15        -0.10713
      13 -> 16        -0.10861
      13 -> 20         0.62487
      13 -> 21         0.13533

 Excited State  14:      Singlet-A     12.1953 eV  101.67 nm  f=0.0299  <S**2>=0.000
      10 -> 15         0.14758
      11 -> 18         0.15130
      12 -> 18         0.62662

 Excited State  15:      Singlet-A     12.2321 eV  101.36 nm  f=0.0049  <S**2>=0.000
       8 -> 14        -0.16711
      10 -> 14        -0.12213
      11 -> 15         0.62876
      11 -> 16         0.11649

 Excited State  16:      Singlet-A     12.5697 eV   98.64 nm  f=0.2182  <S**2>=0.000
       9 -> 14         0.16575
      10 -> 15         0.59086
      10 -> 16         0.17702
      11 -> 18        -0.10865
      12 -> 18        -0.14389

 Excited State  17:      Singlet-A     12.6693 eV   97.86 nm  f=0.0103  <S**2>=0.000
       9 -> 14        -0.25290
      10 -> 15         0.12184
      10 -> 16        -0.29727
      10 -> 17         0.12739
      10 -> 18        -0.11307
      11 -> 16         0.11030
      12 -> 19         0.47146
      12 -> 20        -0.10440
      13 -> 21         0.10820

 Excited State  18:      Singlet-A     12.7295 eV   97.40 nm  f=0.3044  <S**2>=0.000
       8 -> 14        -0.17662
      10 -> 16         0.11831
      10 -> 17        -0.11092
      11 -> 15        -0.14954
      11 -> 16         0.61551

 Excited State  19:      Singlet-A     12.8484 eV   96.50 nm  f=0.0295  <S**2>=0.000
       9 -> 14         0.18367
      10 -> 15        -0.15730
      10 -> 16         0.38961
      10 -> 17        -0.19168
      11 -> 17        -0.14885
      11 -> 18        -0.12678
      12 -> 19         0.37555
      13 -> 21         0.16631

 Excited State  20:      Singlet-A     12.9578 eV   95.68 nm  f=0.0615  <S**2>=0.000
       8 -> 14         0.14194
      11 -> 17         0.60864
      11 -> 18         0.11440
      12 -> 19         0.17442

 Excited State  21:      Singlet-A     13.0476 eV   95.02 nm  f=0.0177  <S**2>=0.000
       9 -> 14         0.52282
      10 -> 15        -0.13341
      10 -> 16        -0.28965
      10 -> 17         0.14518
      12 -> 19         0.10871
      13 -> 21        -0.15570

 Excited State  22:      Singlet-A     13.0852 eV   94.75 nm  f=0.0368  <S**2>=0.000
       8 -> 14         0.18897
       9 -> 14         0.18257
      10 -> 15         0.12887
      10 -> 16        -0.15354
      10 -> 17        -0.18472
      11 -> 18         0.12432
      12 -> 19        -0.12158
      12 -> 20        -0.10764
      13 -> 21         0.52408

 Excited State  23:      Singlet-A     13.3433 eV   92.92 nm  f=0.1626  <S**2>=0.000
       8 -> 14         0.13306
      10 -> 16         0.22631
      10 -> 17         0.56352
      11 -> 17        -0.13993
      13 -> 21         0.18435

 Excited State  24:      Singlet-A     13.4668 eV   92.07 nm  f=0.3174  <S**2>=0.000
       8 -> 14         0.19317
      10 -> 16         0.13164
      10 -> 18        -0.14638
      11 -> 17        -0.20594
      11 -> 18         0.48963
      11 -> 19        -0.13846
      12 -> 18        -0.13472
      12 -> 19         0.12171
      13 -> 21        -0.17047

 Excited State  25:      Singlet-A     13.5664 eV   91.39 nm  f=0.0519  <S**2>=0.000
       9 -> 16         0.10661
       9 -> 17        -0.10157
      10 -> 19         0.14948
      11 -> 18         0.16290
      12 -> 20         0.58213
      13 -> 21         0.10896

 Excited State  26:      Singlet-A     13.6164 eV   91.06 nm  f=0.0532  <S**2>=0.000
       8 -> 14         0.48745
      10 -> 17        -0.12799
      10 -> 18        -0.17895
      11 -> 15         0.10562
      11 -> 16         0.15568
      11 -> 18        -0.28757
      12 -> 20         0.20107
      13 -> 21        -0.12534

 Excited State  27:      Singlet-A     13.6809 eV   90.63 nm  f=0.0805  <S**2>=0.000
       8 -> 14         0.18223
       8 -> 15        -0.10474
       9 -> 15        -0.12012
      10 -> 18         0.58144
      11 -> 17        -0.10291
      11 -> 19        -0.18032
      12 -> 19         0.10321

 Excited State  28:      Singlet-A     13.8710 eV   89.38 nm  f=0.0670  <S**2>=0.000
       8 -> 14         0.11643
       9 -> 15        -0.17208
       9 -> 17        -0.13133
      10 -> 19         0.38572
      11 -> 18         0.11315
      11 -> 19         0.46001
      12 -> 20        -0.12434

 Excited State  29:      Singlet-A     14.0620 eV   88.17 nm  f=0.0708  <S**2>=0.000
       9 -> 15         0.56681
      10 -> 18         0.19005
      10 -> 19        -0.14108
      11 -> 19         0.25232

 Excited State  30:      Singlet-A     14.3831 eV   86.20 nm  f=0.0044  <S**2>=0.000
       9 -> 15         0.24792
       9 -> 16        -0.31489
       9 -> 17         0.13141
      10 -> 19         0.44675
      11 -> 19        -0.26972

 Excited State  31:      Singlet-A     14.4049 eV   86.07 nm  f=0.0884  <S**2>=0.000
       9 -> 15        -0.10231
       9 -> 17         0.14769
      12 -> 21         0.62942

 Excited State  32:      Singlet-A     14.4606 eV   85.74 nm  f=0.0398  <S**2>=0.000
       9 -> 15         0.12721
       9 -> 16         0.56423
       9 -> 18         0.12683
      10 -> 19         0.22961
      11 -> 19        -0.12086
      12 -> 20        -0.12913

 Excited State  33:      Singlet-A     14.6796 eV   84.46 nm  f=0.1726  <S**2>=0.000
       8 -> 15         0.62382
      11 -> 19        -0.16070

 Excited State  34:      Singlet-A     14.7799 eV   83.89 nm  f=0.0555  <S**2>=0.000
       9 -> 16         0.17021
       9 -> 17         0.61007
      11 -> 19         0.11391
      12 -> 21        -0.13301

 Excited State  35:      Singlet-A     14.8822 eV   83.31 nm  f=0.0586  <S**2>=0.000
       7 -> 14         0.59353
       8 -> 15         0.13165
      11 -> 20        -0.26002

 Excited State  36:      Singlet-A     15.0065 eV   82.62 nm  f=0.0804  <S**2>=0.000
       7 -> 14         0.16180
       8 -> 16         0.45969
       9 -> 18         0.30672
      11 -> 20         0.32236

 Excited State  37:      Singlet-A     15.2227 eV   81.45 nm  f=0.0304  <S**2>=0.000
       8 -> 16        -0.30484
       8 -> 17        -0.34226
       9 -> 18         0.43905
      10 -> 20         0.14925
      11 -> 20         0.10559

 Excited State  38:      Singlet-A     15.2834 eV   81.12 nm  f=0.0189  <S**2>=0.000
       7 -> 14         0.17769
       8 -> 16        -0.26757
       8 -> 17         0.19400
       9 -> 18        -0.20933
      10 -> 20         0.16781
      10 -> 21        -0.14763
      11 -> 20         0.43858
      11 -> 21        -0.11290
      12 -> 21         0.12005

 Excited State  39:      Singlet-A     15.3221 eV   80.92 nm  f=0.0472  <S**2>=0.000
       8 -> 16         0.14875
       8 -> 17         0.26375
       9 -> 18         0.13712
       9 -> 19         0.14508
      10 -> 20         0.52784
      10 -> 21        -0.11549
      11 -> 20        -0.15989

 Excited State  40:      Singlet-A     15.4993 eV   79.99 nm  f=0.0186  <S**2>=0.000
       7 -> 17         0.10309
       8 -> 16        -0.23544
       8 -> 17         0.45013
       8 -> 18         0.17535
       9 -> 18         0.24810
      10 -> 20        -0.27051
      11 -> 20        -0.11273

 Excited State  41:      Singlet-A     15.6440 eV   79.25 nm  f=0.0487  <S**2>=0.000
       9 -> 19         0.65814
      10 -> 20        -0.12690

 Excited State  42:      Singlet-A     15.7360 eV   78.79 nm  f=0.0745  <S**2>=0.000
       8 -> 18         0.14555
      10 -> 21        -0.10791
      11 -> 20         0.15137
      11 -> 21         0.62047

 Excited State  43:      Singlet-A     15.9540 eV   77.71 nm  f=0.1206  <S**2>=0.000
       7 -> 15         0.60266
       7 -> 16        -0.13012
       7 -> 18         0.11060
       8 -> 18        -0.24771

 Excited State  44:      Singlet-A     15.9669 eV   77.65 nm  f=0.0243  <S**2>=0.000
       7 -> 15         0.21023
       7 -> 17        -0.12515
       8 -> 18         0.55195
       9 -> 18        -0.12999
      10 -> 21        -0.19137
      11 -> 21        -0.16328

 Excited State  45:      Singlet-A     16.0816 eV   77.10 nm  f=0.0669  <S**2>=0.000
       7 -> 17        -0.11416
       8 -> 18         0.14567
       8 -> 19        -0.25373
       9 -> 20        -0.27368
      10 -> 20         0.12323
      10 -> 21         0.50733

 Excited State  46:      Singlet-A     16.3838 eV   75.67 nm  f=0.0437  <S**2>=0.000
       7 -> 16        -0.29785
       7 -> 17         0.29509
       8 -> 19         0.47284
       9 -> 20        -0.10800
      10 -> 21         0.17598

 Excited State  47:      Singlet-A     16.5355 eV   74.98 nm  f=0.1961  <S**2>=0.000
       7 -> 16         0.33517
       7 -> 17        -0.39797
       8 -> 19         0.40457
       9 -> 20        -0.13983

 Excited State  48:      Singlet-A     16.8002 eV   73.80 nm  f=0.0539  <S**2>=0.000
       7 -> 15         0.19157
       7 -> 16         0.46684
       7 -> 17         0.35196
       7 -> 19         0.10488
       8 -> 20        -0.10564
       9 -> 20         0.17719

 Excited State  49:      Singlet-A     17.1415 eV   72.33 nm  f=0.1244  <S**2>=0.000
       7 -> 16        -0.11342
       7 -> 17        -0.17942
       8 -> 20        -0.11670
       9 -> 20         0.52091
       9 -> 21         0.25306
      10 -> 21         0.21192

 Excited State  50:      Singlet-A     17.3791 eV   71.34 nm  f=0.1059  <S**2>=0.000
       7 -> 18        -0.39255
       8 -> 20         0.47064
       9 -> 20         0.15715
       9 -> 21        -0.20997

 Excited State  51:      Singlet-A     17.4485 eV   71.06 nm  f=0.1574  <S**2>=0.000
       7 -> 18         0.54355
       7 -> 19         0.11943
       8 -> 20         0.27842
       9 -> 21        -0.23069

 Excited State  52:      Singlet-A     17.6614 eV   70.20 nm  f=0.1429  <S**2>=0.000
       7 -> 17        -0.14629
       7 -> 19         0.41595
       8 -> 20        -0.29772
       9 -> 21        -0.37876
      13 -> 22        -0.10573

 Excited State  53:      Singlet-A     17.8896 eV   69.31 nm  f=0.0215  <S**2>=0.000
       7 -> 19        -0.22602
       8 -> 21         0.63703
       9 -> 21        -0.12477

 Excited State  54:      Singlet-A     17.9482 eV   69.08 nm  f=0.0490  <S**2>=0.000
       6 -> 14         0.24997
       7 -> 19         0.45166
       8 -> 20         0.14900
       8 -> 21         0.25182
       9 -> 21         0.29513

 Excited State  55:      Singlet-A     18.3565 eV   67.54 nm  f=0.0180  <S**2>=0.000
       6 -> 14        -0.43234
       7 -> 19         0.10629
      13 -> 22         0.50111

 Excited State  56:      Singlet-A     18.4830 eV   67.08 nm  f=0.0313  <S**2>=0.000
       6 -> 14         0.42025
       7 -> 20         0.11743
       8 -> 20        -0.12021
       9 -> 21        -0.13841
      13 -> 22         0.44955
      13 -> 23        -0.10428

 Excited State  57:      Singlet-A     18.8153 eV   65.90 nm  f=0.0940  <S**2>=0.000
       7 -> 20         0.58677
       7 -> 21        -0.10726
      13 -> 23         0.24105
      13 -> 24        -0.12159
      13 -> 25        -0.12605

 Excited State  58:      Singlet-A     18.8878 eV   65.64 nm  f=0.0092  <S**2>=0.000
       7 -> 20        -0.18483
       7 -> 21         0.15593
      13 -> 23         0.53497
      13 -> 24         0.21182
      13 -> 25        -0.28058

 Excited State  59:      Singlet-A     19.2148 eV   64.53 nm  f=0.0118  <S**2>=0.000
       7 -> 21         0.23157
      13 -> 23         0.28233
      13 -> 24        -0.30641
      13 -> 25         0.48757

 Excited State  60:      Singlet-A     19.4189 eV   63.85 nm  f=0.0267  <S**2>=0.000
       6 -> 15         0.39341
       7 -> 21         0.47193
      13 -> 23        -0.16575
      13 -> 25        -0.23777

 Excited State  61:      Singlet-A     19.5966 eV   63.27 nm  f=0.0033  <S**2>=0.000
       6 -> 15         0.47456
       6 -> 17         0.14037
       7 -> 21        -0.34543
      12 -> 22        -0.27333

 Excited State  62:      Singlet-A     19.7742 eV   62.70 nm  f=0.0130  <S**2>=0.000
       6 -> 16         0.46092
       6 -> 17        -0.40777
      12 -> 22        -0.14736
      13 -> 24        -0.19595
      13 -> 25        -0.13842

 Excited State  63:      Singlet-A     19.9782 eV   62.06 nm  f=0.0120  <S**2>=0.000
       6 -> 16         0.47595
       6 -> 17         0.34346
       6 -> 18         0.11513
      12 -> 22         0.18737
      12 -> 23        -0.18242
      13 -> 24         0.18850

 Excited State  64:      Singlet-A     20.0793 eV   61.75 nm  f=0.1009  <S**2>=0.000
       6 -> 15        -0.19999
       6 -> 17         0.39081
      11 -> 22         0.10775
      12 -> 22        -0.34564
      12 -> 23         0.23997
      13 -> 24        -0.18751
      13 -> 25        -0.13977

 Excited State  65:      Singlet-A     20.1855 eV   61.42 nm  f=0.0892  <S**2>=0.000
       6 -> 17        -0.13685
       6 -> 18         0.14039
       7 -> 20         0.17686
       7 -> 21         0.13684
      12 -> 22        -0.36522
      12 -> 24         0.12770
      13 -> 24         0.38131
      13 -> 25         0.20836
      13 -> 26        -0.12919

 Excited State  66:      Singlet-A     20.2204 eV   61.32 nm  f=0.0468  <S**2>=0.000
       6 -> 15         0.10089
      11 -> 22        -0.11984
      12 -> 22         0.20298
      12 -> 23         0.60262
      13 -> 24         0.13822

 Excited State  67:      Singlet-A     20.6166 eV   60.14 nm  f=0.0114  <S**2>=0.000
       6 -> 16        -0.10795
       6 -> 18         0.61930
      12 -> 24        -0.14947
      12 -> 25         0.21630

 Excited State  68:      Singlet-A     20.8418 eV   59.49 nm  f=0.0317  <S**2>=0.000
       6 -> 18        -0.18732
       6 -> 19         0.31687
      12 -> 24        -0.20253
      12 -> 25         0.48056
      13 -> 26        -0.15896

 Excited State  69:      Singlet-A     20.9156 eV   59.28 nm  f=0.0588  <S**2>=0.000
      10 -> 22         0.31273
      11 -> 22         0.47310
      11 -> 23        -0.20337
      12 -> 24        -0.27125

 Excited State  70:      Singlet-A     21.1031 eV   58.75 nm  f=0.0241  <S**2>=0.000
       6 -> 19         0.59680
      12 -> 25        -0.26389

 Excited State  71:      Singlet-A     21.2800 eV   58.26 nm  f=0.0568  <S**2>=0.000
      10 -> 22        -0.20461
      11 -> 22         0.28342
      11 -> 23        -0.29644
      11 -> 24         0.12811
      12 -> 24         0.40040
      12 -> 25         0.23419
      13 -> 26         0.10615

 Excited State  72:      Singlet-A     21.4247 eV   57.87 nm  f=0.0785  <S**2>=0.000
       5 -> 14        -0.14530
      10 -> 22         0.35933
      10 -> 23         0.34650
      12 -> 24         0.31487
      12 -> 25         0.13351
      13 -> 26        -0.23163

 Excited State  73:      Singlet-A     21.4583 eV   57.78 nm  f=0.0593  <S**2>=0.000
       5 -> 14         0.29402
       6 -> 20         0.12127
      11 -> 22         0.23186
      11 -> 23         0.48761
      11 -> 24        -0.11281
      13 -> 26         0.16828

 Excited State  74:      Singlet-A     21.6644 eV   57.23 nm  f=0.0626  <S**2>=0.000
       5 -> 14         0.46522
      10 -> 23         0.32879
      11 -> 22        -0.19604
      11 -> 23        -0.25146
      13 -> 26         0.13316

 Excited State  75:      Singlet-A     21.7753 eV   56.94 nm  f=0.0363  <S**2>=0.000
       5 -> 14        -0.33141
       6 -> 20         0.23775
      10 -> 22        -0.20090
      10 -> 23         0.39615
      11 -> 25         0.11880
      12 -> 24        -0.13875
      13 -> 26         0.16691

 Excited State  76:      Singlet-A     21.9316 eV   56.53 nm  f=0.1378  <S**2>=0.000
       5 -> 14        -0.12944
       9 -> 22         0.16223
      10 -> 22         0.28910
      10 -> 23        -0.15927
      10 -> 25         0.13425
      11 -> 24        -0.14056
      12 -> 26        -0.11930
      13 -> 26         0.45978

 Excited State  77:      Singlet-A     22.1886 eV   55.88 nm  f=0.0434  <S**2>=0.000
       6 -> 20         0.57765
      10 -> 22         0.12653
      10 -> 23        -0.10092
      10 -> 24         0.11330
      11 -> 25        -0.21240
      13 -> 27         0.12200

 Excited State  78:      Singlet-A     22.3476 eV   55.48 nm  f=0.0310  <S**2>=0.000
       9 -> 23        -0.13497
      10 -> 22        -0.10700
      10 -> 24         0.44038
      11 -> 23        -0.10598
      11 -> 24        -0.42787
      13 -> 27         0.11192
      13 -> 28        -0.11434

 Excited State  79:      Singlet-A     22.5076 eV   55.09 nm  f=0.0186  <S**2>=0.000
       5 -> 15         0.13620
       6 -> 21        -0.23520
       9 -> 22         0.54339
      10 -> 25        -0.11175
      11 -> 24         0.19934
      13 -> 27         0.15464

 Excited State  80:      Singlet-A     22.5874 eV   54.89 nm  f=0.1180  <S**2>=0.000
       5 -> 15         0.19388
       6 -> 21         0.11688
       9 -> 22        -0.13982
      10 -> 24         0.42607
      11 -> 24         0.34049
      11 -> 25         0.16085
      13 -> 26         0.10709
      13 -> 27        -0.18467

 Excited State  81:      Singlet-A     22.7665 eV   54.46 nm  f=0.0294  <S**2>=0.000
       5 -> 15         0.54129
       9 -> 24         0.10096
      10 -> 24        -0.10395
      10 -> 25         0.27911
      11 -> 24        -0.12431
      11 -> 25        -0.17884

 Excited State  82:      Singlet-A     22.7988 eV   54.38 nm  f=0.0436  <S**2>=0.000
       5 -> 15         0.18736
       6 -> 21        -0.18621
       8 -> 22         0.15465
       9 -> 22        -0.15065
      10 -> 24        -0.12178
      11 -> 25         0.41185
      12 -> 26         0.28138
      13 -> 27         0.20063

 Excited State  83:      Singlet-A     22.8865 eV   54.17 nm  f=0.0197  <S**2>=0.000
       5 -> 15        -0.26258

 The electronic state is 1-A.
 Alpha  occ. eigenvalues --  -19.24532 -10.33851 -10.29089  -1.10605  -0.83543
 Alpha  occ. eigenvalues --   -0.71000  -0.58911  -0.53836  -0.51778  -0.46330
 Alpha  occ. eigenvalues --   -0.45224  -0.40197  -0.35092
 Alpha virt. eigenvalues --    0.13502   0.17537   0.19114   0.20303   0.21769
 Alpha virt. eigenvalues --    0.23988   0.29684   0.32034   0.50843   0.53097
 Alpha virt. eigenvalues --    0.56155   0.58022   0.64657   0.69132   0.71648

 Mulliken charges:
               1
     1  C   -0.119037
     2  C    0.128627
     3  O   -0.344478
     4  H    0.038138
     5  H    0.028584
     6  H    0.049926
     7  H    0.015770
     8  H    0.032801
     9  H    0.169668
 Sum of Mulliken charges =  -0.00000

 Dipole moment (field-independent basis, Debye):
    X=             -1.1155    Y=             -0.2421    Z=              1.1879  Tot=              1.6474
 Quadrupole moment (field-independent basis, Debye-Ang):
   XX=            -21.9151   YY=            -18.3811   ZZ=            -18.9695
   XY=             -1.0498   XZ=              1.8058   YZ=             -1.3988

 Normal termination of Gaussian 16 at Sat Aug 14 23:28:18 2021.
