 Gaussian 16, Revision C.01,
 Gaussian 16:  EM64L-G16RevC.01  3-Jul-2019

 ----------------------------------------------------------------------
 #P TD(Nstates=10000) wB97XD/def2SVP SCF(maxcycles=100) Int(Grid=ultraf
 ine)
 ----------------------------------------------------------------------

 ---------------------
 xGDB7_00001_tier4.com
 ---------------------
 Symbolic Z-matrix:
 Charge =  0 Multiplicity = 1

                         Standard orientation:
 ---------------------------------------------------------------------
 Center     Atomic      Atomic             Coordinates (Angstroms)
 Number     Number       Type             X           Y           Z
 ---------------------------------------------------------------------
      1          6           0       -1.138620   -0.501990    0.000000
      2          6           0        0.000000    0.471603    0.000000
      3          6           0        1.292906    0.148161    0.000000
      4          1           0       -1.780817   -0.357312    0.883924
      5          1           0       -0.783052   -1.542798    0.000000
      6          1           0       -1.780817   -0.357312   -0.883924
      7          1           0       -0.274976    1.533816    0.000000
      8          1           0        1.620949   -0.896549    0.000000
      9          1           0        2.072996    0.913508    0.000000
 ---------------------------------------------------------------------

 SCF Done:  E(RwB97XD) =  -117.781268034     A.U. after   13 cycles

 Excitation energies and oscillator strengths:

 Excited State   1:      Singlet-A'     7.8697 eV  157.55 nm  f=0.4679  <S**2>=0.000
      12 -> 13         0.70109
 This state for optimization and/or second-order correction.
 Total Energy, E(TD-HF/TD-DFT) =  -117.492063441
 Copying the excited state density for this state as the 1-particle RhoCI density.

 Excited State   2:      Singlet-A"     8.3886 eV  147.80 nm  f=0.0001  <S**2>=0.000
      11 -> 13         0.67597
      12 -> 14        -0.14418
      12 -> 15         0.12063

 Excited State   3:      Singlet-A"     8.6388 eV  143.52 nm  f=0.0005  <S**2>=0.000
      11 -> 13         0.18062
      12 -> 14         0.61368
      12 -> 15        -0.23324
      12 -> 16         0.17586

 Excited State   4:      Singlet-A"     9.0696 eV  136.70 nm  f=0.0001  <S**2>=0.000
      12 -> 14         0.21175
      12 -> 15         0.63559
      12 -> 16         0.18088

 Excited State   5:      Singlet-A"     9.2994 eV  133.32 nm  f=0.0008  <S**2>=0.000
       7 -> 13         0.11936
       8 -> 13        -0.18470
      10 -> 13         0.66202

 Excited State   6:      Singlet-A"     9.6903 eV  127.95 nm  f=0.0196  <S**2>=0.000
      12 -> 14        -0.22552
      12 -> 15        -0.11016
      12 -> 16         0.65143

 Excited State   7:      Singlet-A"    10.5648 eV  117.36 nm  f=0.0007  <S**2>=0.000
       8 -> 13         0.65774
      10 -> 13         0.18215
      12 -> 18         0.14054

 Excited State   8:      Singlet-A"    10.7201 eV  115.66 nm  f=0.0007  <S**2>=0.000
       8 -> 13        -0.11560
      12 -> 18         0.39879
      12 -> 19         0.56179

 Excited State   9:      Singlet-A'    10.7841 eV  114.97 nm  f=0.0335  <S**2>=0.000
      11 -> 14        -0.10802
      12 -> 17         0.69308

 Excited State  10:      Singlet-A"    10.8412 eV  114.36 nm  f=0.0083  <S**2>=0.000
      12 -> 18         0.55534
      12 -> 19        -0.40796

 Excited State  11:      Singlet-A'    11.1361 eV  111.34 nm  f=0.0294  <S**2>=0.000
       9 -> 13        -0.10583
      10 -> 14         0.10446
      11 -> 14         0.64615
      11 -> 15        -0.13660
      11 -> 16         0.11449
      12 -> 17         0.10365

 Excited State  12:      Singlet-A'    11.3951 eV  108.80 nm  f=0.0396  <S**2>=0.000
       9 -> 13         0.68801
      11 -> 14         0.10370

 Excited State  13:      Singlet-A'    11.6008 eV  106.88 nm  f=0.1545  <S**2>=0.000
      10 -> 14         0.62585
      10 -> 15         0.10443
      11 -> 16        -0.25032

 Excited State  14:      Singlet-A'    11.8071 eV  105.01 nm  f=0.3712  <S**2>=0.000
      10 -> 15        -0.12471
      11 -> 14         0.12819
      11 -> 15         0.66992

 Excited State  15:      Singlet-A"    11.9165 eV  104.04 nm  f=0.0070  <S**2>=0.000
       7 -> 13         0.68409
      10 -> 13        -0.13115

 Excited State  16:      Singlet-A'    12.0779 eV  102.65 nm  f=0.0917  <S**2>=0.000
       8 -> 14        -0.19105
      10 -> 14         0.24609
      11 -> 14        -0.14460
      11 -> 16         0.59274

 Excited State  17:      Singlet-A'    12.4464 eV   99.61 nm  f=0.3836  <S**2>=0.000
      10 -> 15         0.65992
      11 -> 15         0.11512
      11 -> 16         0.13345

 Excited State  18:      Singlet-A"    12.6707 eV   97.85 nm  f=0.2156  <S**2>=0.000
       9 -> 14         0.64479
       9 -> 16        -0.18717
      11 -> 17         0.15055

 Excited State  19:      Singlet-A"    12.8242 eV   96.68 nm  f=0.0105  <S**2>=0.000
       8 -> 17         0.16164
       9 -> 14        -0.16668
      10 -> 17         0.18675
      11 -> 17         0.63032

 Excited State  20:      Singlet-A'    13.0167 eV   95.25 nm  f=0.0056  <S**2>=0.000
       7 -> 14         0.10903
       8 -> 14        -0.21249
      10 -> 16         0.60113
      11 -> 18        -0.15673

 Excited State  21:      Singlet-A'    13.0640 eV   94.90 nm  f=0.0182  <S**2>=0.000
       8 -> 15         0.17143
       8 -> 16         0.14112
      10 -> 16         0.14000
      11 -> 18         0.60846
      11 -> 19        -0.17788

 Excited State  22:      Singlet-A"    13.1847 eV   94.04 nm  f=0.0419  <S**2>=0.000
       7 -> 17        -0.13002
      10 -> 17         0.56759
      11 -> 17        -0.13366
      12 -> 20         0.35149

 Excited State  23:      Singlet-A'    13.3047 eV   93.19 nm  f=0.4113  <S**2>=0.000
       8 -> 15        -0.26006
      10 -> 16         0.13821
      11 -> 18         0.19323
      11 -> 19         0.58086

 Excited State  24:      Singlet-A"    13.3723 eV   92.72 nm  f=0.0187  <S**2>=0.000
       9 -> 15        -0.20184
       9 -> 18        -0.10789
      10 -> 17        -0.27220
      11 -> 17         0.15070
      12 -> 20         0.57429

 Excited State  25:      Singlet-A'    13.5365 eV   91.59 nm  f=0.0230  <S**2>=0.000
       8 -> 14         0.61705
      10 -> 15        -0.11266
      10 -> 16         0.16942
      11 -> 16         0.19426

 Excited State  26:      Singlet-A"    13.5789 eV   91.31 nm  f=0.0457  <S**2>=0.000
       9 -> 15         0.61463
       9 -> 16         0.10291
       9 -> 18         0.15399
       9 -> 19        -0.11420
      10 -> 17        -0.18164
      12 -> 20         0.16023

 Excited State  27:      Singlet-A'    13.7579 eV   90.12 nm  f=0.0020  <S**2>=0.000
       7 -> 15        -0.10750
       8 -> 15         0.30249
       8 -> 16         0.10613
       9 -> 17         0.22451
      10 -> 18         0.48615
      10 -> 19        -0.19207
      11 -> 19         0.18149

 Excited State  28:      Singlet-A'    14.0027 eV   88.54 nm  f=0.3091  <S**2>=0.000
       8 -> 15         0.44254
       8 -> 16        -0.11117
       9 -> 17         0.12935
      10 -> 18        -0.42001
      10 -> 19        -0.12455
      11 -> 18        -0.10386
      11 -> 19         0.20503

 Excited State  29:      Singlet-A'    14.1960 eV   87.34 nm  f=0.0983  <S**2>=0.000
       8 -> 15         0.29373
       8 -> 16         0.16898
       9 -> 17        -0.23294
      10 -> 19         0.51956
      10 -> 20         0.10802

 Excited State  30:      Singlet-A"    14.3183 eV   86.59 nm  f=0.0211  <S**2>=0.000
       6 -> 13        -0.15836
       9 -> 14         0.18009
       9 -> 15        -0.17655
       9 -> 16         0.51839
       9 -> 18         0.35840

 Excited State  31:      Singlet-A'    14.4638 eV   85.72 nm  f=0.1772  <S**2>=0.000
       7 -> 14         0.18564
       8 -> 16         0.60166
      10 -> 18        -0.14016
      11 -> 18        -0.17881

 Excited State  32:      Singlet-A'    14.7926 eV   83.82 nm  f=0.0357  <S**2>=0.000
       7 -> 14         0.36278
       8 -> 16        -0.12438
       8 -> 19        -0.11078
       9 -> 17         0.44026
      10 -> 16        -0.14358
      10 -> 19         0.27714

 Excited State  33:      Singlet-A"    14.8002 eV   83.77 nm  f=0.0796  <S**2>=0.000
       6 -> 13         0.63418
       8 -> 17         0.13990
       9 -> 16         0.15096
      12 -> 21        -0.13191
      12 -> 24        -0.10409

 Excited State  34:      Singlet-A'    15.0141 eV   82.58 nm  f=0.2106  <S**2>=0.000
       7 -> 14         0.51700
       7 -> 16         0.12723
       8 -> 18        -0.15172
       9 -> 17        -0.32651
      10 -> 19        -0.14198

 Excited State  35:      Singlet-A"    15.1086 eV   82.06 nm  f=0.0000  <S**2>=0.000
       8 -> 17         0.57849
       9 -> 16        -0.18839
       9 -> 18         0.22532
       9 -> 19        -0.16394
      11 -> 17        -0.13757

 Excited State  36:      Singlet-A'    15.2021 eV   81.56 nm  f=0.0434  <S**2>=0.000
       7 -> 15         0.60744
       8 -> 18         0.10003
       8 -> 19        -0.22919
      10 -> 19        -0.11347
      10 -> 20        -0.10730

 Excited State  37:      Singlet-A"    15.2336 eV   81.39 nm  f=0.0392  <S**2>=0.000
       6 -> 13         0.10406
       8 -> 17        -0.31589
       9 -> 15        -0.13018
       9 -> 16        -0.25819
       9 -> 18         0.44201
       9 -> 19        -0.25707
      12 -> 21        -0.15279

 Excited State  38:      Singlet-A'    15.4857 eV   80.06 nm  f=0.1095  <S**2>=0.000
       7 -> 15        -0.14601
       8 -> 18         0.61600
       9 -> 17        -0.16390
      10 -> 18         0.10160

 Excited State  39:      Singlet-A'    15.5744 eV   79.61 nm  f=0.0933  <S**2>=0.000
       7 -> 15         0.22840
       8 -> 18         0.15525
       8 -> 19         0.56687
      10 -> 20         0.15636
      11 -> 20         0.12263

 Excited State  40:      Singlet-A"    15.6736 eV   79.10 nm  f=0.0851  <S**2>=0.000
       6 -> 13         0.12997
       9 -> 19        -0.20326
      12 -> 21         0.64122

 Excited State  41:      Singlet-A"    15.7515 eV   78.71 nm  f=0.0022  <S**2>=0.000
       9 -> 16        -0.21240
       9 -> 18         0.26313
       9 -> 19         0.52987
       9 -> 20         0.21694
      12 -> 21         0.18141

 Excited State  42:      Singlet-A'    15.7801 eV   78.57 nm  f=0.0562  <S**2>=0.000
       7 -> 14        -0.14248
       7 -> 15        -0.12768
       7 -> 16         0.60545
       7 -> 19         0.11606
       8 -> 19        -0.10908
      11 -> 20         0.20085

 Excited State  43:      Singlet-A'    16.2322 eV   76.38 nm  f=0.1158  <S**2>=0.000
       7 -> 16        -0.18836
       7 -> 19        -0.11593
       8 -> 19        -0.20944
      10 -> 20         0.21533
      11 -> 20         0.56905

 Excited State  44:      Singlet-A'    16.4822 eV   75.22 nm  f=0.1392  <S**2>=0.000
       6 -> 14        -0.13301
       7 -> 16         0.10113
       7 -> 18        -0.21313
       7 -> 19        -0.24398
       8 -> 19        -0.13138
      10 -> 20         0.48191
      11 -> 20        -0.23312
      12 -> 25         0.11377

 Excited State  45:      Singlet-A"    16.6536 eV   74.45 nm  f=0.0244  <S**2>=0.000
       7 -> 17         0.67825
      10 -> 17         0.12892

 Excited State  46:      Singlet-A'    16.7800 eV   73.89 nm  f=0.0756  <S**2>=0.000
       7 -> 18         0.63585
      10 -> 20         0.21033

 Excited State  47:      Singlet-A"    16.9596 eV   73.11 nm  f=0.1088  <S**2>=0.000
      12 -> 22         0.68528

 Excited State  48:      Singlet-A'    17.0988 eV   72.51 nm  f=0.0105  <S**2>=0.000
       6 -> 14         0.33639
       6 -> 15        -0.11574
       7 -> 18        -0.10239
       7 -> 19         0.47727
      10 -> 20         0.30413

 Excited State  49:      Singlet-A'    17.1618 eV   72.24 nm  f=0.0237  <S**2>=0.000
       6 -> 14         0.49047
       6 -> 15        -0.24156
       7 -> 19        -0.37194
       8 -> 20         0.16189

 Excited State  50:      Singlet-A"    17.5749 eV   70.55 nm  f=0.0001  <S**2>=0.000
       9 -> 19         0.16080
       9 -> 20        -0.38664
      12 -> 23         0.55375

 Excited State  51:      Singlet-A'    17.6258 eV   70.34 nm  f=0.0137  <S**2>=0.000
       6 -> 14         0.29090
       6 -> 15         0.58243
       6 -> 16         0.13814
       8 -> 20        -0.11699

 Excited State  52:      Singlet-A"    17.8440 eV   69.48 nm  f=0.0000  <S**2>=0.000
       9 -> 19        -0.14475
       9 -> 20         0.51105
      12 -> 23         0.39993
      12 -> 24         0.19577

 Excited State  53:      Singlet-A'    17.9685 eV   69.00 nm  f=0.1405  <S**2>=0.000
       6 -> 15         0.20639
       6 -> 16        -0.17025
       8 -> 20         0.60400

 Excited State  54:      Singlet-A"    18.0762 eV   68.59 nm  f=0.2051  <S**2>=0.000
       5 -> 13         0.49361
       9 -> 20         0.12369
      12 -> 24        -0.44832

 Excited State  55:      Singlet-A'    18.1526 eV   68.30 nm  f=0.0010  <S**2>=0.000
       6 -> 14        -0.11293
       6 -> 16         0.60214
       8 -> 20         0.17382
      11 -> 21        -0.11637
      12 -> 25        -0.20975

 Excited State  56:      Singlet-A'    18.3980 eV   67.39 nm  f=0.1442  <S**2>=0.000
      11 -> 21         0.61938
      11 -> 22         0.10985
      12 -> 25        -0.22106

 Excited State  57:      Singlet-A"    18.5908 eV   66.69 nm  f=0.4831  <S**2>=0.000
       5 -> 13         0.47761
       6 -> 17        -0.11394
      12 -> 23        -0.11865
      12 -> 24         0.45820

 Excited State  58:      Singlet-A'    18.7311 eV   66.19 nm  f=0.0595  <S**2>=0.000
       6 -> 16         0.19004
       6 -> 18         0.45673
      10 -> 22         0.12184
      11 -> 21         0.14998
      11 -> 22         0.10766
      12 -> 25         0.38752

 Excited State  59:      Singlet-A"    18.9665 eV   65.37 nm  f=0.0794  <S**2>=0.000
       6 -> 17         0.67662
      12 -> 24         0.13862

 Excited State  60:      Singlet-A'    19.1742 eV   64.66 nm  f=0.0538  <S**2>=0.000
       6 -> 18        -0.15368
       6 -> 19         0.55038
       8 -> 20         0.15531
      10 -> 21         0.10801
      10 -> 22         0.10364
      11 -> 22        -0.29283

 Excited State  61:      Singlet-A'    19.2964 eV   64.25 nm  f=0.0360  <S**2>=0.000
       6 -> 18         0.10616
       6 -> 19         0.26249
       7 -> 20         0.37716
      10 -> 21        -0.19934
      10 -> 22        -0.10318
      11 -> 21        -0.19918
      11 -> 22         0.33640
      12 -> 25        -0.17027

 Excited State  62:      Singlet-A'    19.4375 eV   63.79 nm  f=0.0381  <S**2>=0.000
       6 -> 18        -0.40784
      10 -> 21         0.14777
      11 -> 22         0.42970
      11 -> 24         0.11119
      12 -> 25         0.26853

 Excited State  63:      Singlet-A'    19.4521 eV   63.74 nm  f=0.0671  <S**2>=0.000
       6 -> 19        -0.10653
       7 -> 20         0.30317
      10 -> 21         0.57699
      10 -> 23        -0.11485
      12 -> 25        -0.10500

 Excited State  64:      Singlet-A'    19.6534 eV   63.09 nm  f=0.0394  <S**2>=0.000
       6 -> 18        -0.19304
       6 -> 19        -0.25631
       7 -> 20         0.42517
       8 -> 21        -0.10665
      10 -> 21        -0.18380
      10 -> 22         0.22816
      11 -> 22        -0.19248
      12 -> 25         0.16846

 Excited State  65:      Singlet-A'    20.3110 eV   61.04 nm  f=0.0796  <S**2>=0.000
       8 -> 21        -0.35980
      10 -> 22        -0.27182
      10 -> 23         0.18585
      11 -> 22        -0.10501
      11 -> 23         0.45539

 Excited State  66:      Singlet-A"    20.5472 eV   60.34 nm  f=0.0231  <S**2>=0.000
       4 -> 13         0.36574
       9 -> 21         0.11968
       9 -> 23        -0.10403
      12 -> 26         0.55846

 Excited State  67:      Singlet-A'    20.5598 eV   60.30 nm  f=0.0743  <S**2>=0.000
       5 -> 14         0.54733
      10 -> 22         0.32749
      11 -> 23         0.19964
      12 -> 27        -0.11902

 Excited State  68:      Singlet-A"    20.6968 eV   59.90 nm  f=0.0119  <S**2>=0.000
       4 -> 13         0.14212
       9 -> 21        -0.11941
      11 -> 25         0.66211

 Excited State  69:      Singlet-A'    20.7381 eV   59.79 nm  f=0.0066  <S**2>=0.000
       8 -> 21        -0.38711
      11 -> 23        -0.19765
      11 -> 24         0.43091
      12 -> 27        -0.20012
      12 -> 28         0.11755

 Excited State  70:      Singlet-A"    20.7825 eV   59.66 nm  f=0.0002  <S**2>=0.000
       4 -> 13        -0.10127
       9 -> 21         0.59977
       9 -> 22        -0.22738
       9 -> 23        -0.11974
      10 -> 25         0.11504
      11 -> 25         0.15324
      12 -> 26        -0.10706

 Excited State  71:      Singlet-A'    20.8880 eV   59.36 nm  f=0.0709  <S**2>=0.000
       5 -> 14        -0.23074
       7 -> 21         0.10027
       8 -> 21         0.12978
      10 -> 22         0.15697
      10 -> 23         0.48274
      12 -> 27        -0.31753

 Excited State  72:      Singlet-A'    21.0840 eV   58.80 nm  f=0.0141  <S**2>=0.000
       5 -> 14         0.17134
       5 -> 16         0.17074
       8 -> 21         0.22055
       8 -> 22         0.10845
      10 -> 23         0.17017
      10 -> 24        -0.17144
      11 -> 24         0.43173
      12 -> 27         0.27069

 Excited State  73:      Singlet-A'    21.1933 eV   58.50 nm  f=0.0416  <S**2>=0.000
       5 -> 14        -0.12317
       5 -> 15         0.61254
       8 -> 22         0.11522
      10 -> 22         0.13454
      11 -> 23         0.13525
      11 -> 24         0.11081

 Excited State  74:      Singlet-A"    21.2399 eV   58.37 nm  f=0.0070  <S**2>=0.000
       4 -> 13         0.55754
       9 -> 23         0.11988
      12 -> 26        -0.37734

 Excited State  75:      Singlet-A"    21.2897 eV   58.24 nm  f=0.0032  <S**2>=0.000
       9 -> 21         0.24404
       9 -> 22         0.50184
       9 -> 23        -0.14154
      10 -> 25        -0.38603

 Excited State  76:      Singlet-A'    21.3158 eV   58.17 nm  f=0.1691  <S**2>=0.000
       5 -> 14        -0.21660
       5 -> 15        -0.27850
       6 -> 20        -0.15714
      10 -> 22         0.23798
      10 -> 23        -0.18315
      10 -> 24         0.22875
      11 -> 23         0.29052
      11 -> 24         0.13478
      12 -> 27         0.13354
      12 -> 28        -0.13566

 Excited State  77:      Singlet-A'    21.4978 eV   57.67 nm  f=0.2274  <S**2>=0.000
       5 -> 16         0.15394
       6 -> 20        -0.22164
       8 -> 21        -0.21775
       8 -> 22         0.15171
      10 -> 22         0.15758
      10 -> 23         0.28480
      10 -> 24         0.18747
      11 -> 23        -0.19586
      11 -> 24        -0.14946
      12 -> 27         0.21208
      12 -> 28         0.24135

 Excited State  78:      Singlet-A'    21.6945 eV   57.15 nm  f=0.2263  <S**2>=0.000
       5 -> 14         0.10565
       7 -> 21        -0.18374
       8 -> 24        -0.22188
      10 -> 22        -0.17132
      10 -> 24         0.47426
      11 -> 24         0.11012
      11 -> 26         0.12250
      12 -> 28        -0.15124

 Excited State  79:      Singlet-A'    21.7526 eV   57.00 nm  f=0.0329  <S**2>=0.000
       5 -> 16        -0.38054
       7 -> 21         0.30673
       7 -> 22         0.13929
       8 -> 22         0.40110
      10 -> 24         0.10708

 Excited State  80:      Singlet-A"    21.7986 eV   56.88 nm  f=0.1727  <S**2>=0.000
       5 -> 17         0.15094
       9 -> 21         0.10285
       9 -> 22         0.38878
       9 -> 23         0.17754
      10 -> 25         0.49455

 Excited State  81:      Singlet-A'    21.8053 eV   56.86 nm  f=0.0315  <S**2>=0.000
       5 -> 16         0.41785
       6 -> 20         0.30762
       7 -> 21         0.30897
      10 -> 24         0.17246
      12 -> 28         0.16149

 Excited State  82:      Singlet-A'    21.8779 eV   56.67 nm  f=0.0269  <S**2>=0.000
       5 -> 16        -0.17301
       5 -> 18        -0.11474
       6 -> 20         0.49786
       7 -> 21        -0.13458
       8 -> 23         0.10417
      10 -> 22         0.11714
      12 -> 27         0.29728

 Excited State  83:      Singlet-A'    22.0578 eV   56.21 nm  f=0.0806  <S**2>=0.000
       5 -> 16        -0.13326
       6 -> 20        -0.15717
       7 -> 21         0.41677
       8 -> 22        -0.39680
       8 -> 24        -0.16177
      12 -> 27         0.12801
      12 -> 28         0.14123

 Excited State  84:      Singlet-A"    22.2212 eV   55.80 nm  f=0.1211  <S**2>=0.000
       5 -> 17        -0.26054
       9 -> 21         0.15515
       9 -> 23         0.55627
       9 -> 24        -0.12406
       9 -> 26         0.12566
      10 -> 25        -0.13037
      12 -> 26         0.10438

 Excited State  85:      Singlet-A"    22.3113 eV   55.57 nm  f=0.0209  <S**2>=0.000
       5 -> 17         0.59034
       9 -> 22        -0.12074
       9 -> 23         0.16461
      10 -> 25        -0.17004
      12 -> 29         0.19493

 Excited State  86:      Singlet-A'    22.3962 eV   55.36 nm  f=0.0432  <S**2>=0.000
       5 -> 18        -0.40554
       7 -> 21        -0.12195
       8 -> 21         0.15346
      12 -> 28         0.40668

 Excited State  87:      Singlet-A"    22.5240 eV   55.05 nm  f=0.0087  <S**2>=0.000
       5 -> 17        -0.10332
       8 -> 25         0.58789
      11 -> 27         0.32638

 Excited State  88:      Singlet-A'    22.6441 eV   54.75 nm  f=0.0074  <S**2>=0.000
       5 -> 18        -0.17359
       7 -> 22         0.21090
       7 -> 23        -0.12768
       7 -> 24         0.12848
       8 -> 23         0.41051
       8 -> 24         0.38507
      11 -> 26        -0.14957

 Excited State  89:      Singlet-A'    22.7749 eV   54.44 nm  f=0.0737  <S**2>=0.000
       5 -> 18         0.34316
       5 -> 19        -0.19213
       7 -> 22        -0.23970
       8 -> 23         0.20483
       8 -> 24         0.17184
       9 -> 25        -0.29476
      10 -> 24         0.12806
      12 -> 28         0.21665

 Excited State  90:      Singlet-A"    22.8215 eV   54.33 nm  f=0.0168  <S**2>=0.000

 The electronic state is 1-A'.
 Alpha  occ. eigenvalues --  -10.30137 -10.29560 -10.28888  -0.87669  -0.77276
 Alpha  occ. eigenvalues --   -0.63697  -0.55181  -0.50523  -0.49651  -0.45256
 Alpha  occ. eigenvalues --   -0.42491  -0.33681
 Alpha virt. eigenvalues --    0.09259   0.15508   0.17754   0.19125   0.22052
 Alpha virt. eigenvalues --    0.23210   0.24226   0.34053   0.43973   0.48446
 Alpha virt. eigenvalues --    0.51428   0.52205   0.53539   0.62489   0.62899

 Mulliken charges:
               1
     1  C   -0.022616
     2  C   -0.147278
     3  C   -0.090264
     4  H    0.049912
     5  H    0.036754
     6  H    0.049912
     7  H    0.036625
     8  H    0.038882
     9  H    0.048074
 Sum of Mulliken charges =   0.00000

 Dipole moment (field-independent basis, Debye):
    X=             -0.4062    Y=             -0.0384    Z=              0.0000  Tot=              0.4081
 Quadrupole moment (field-independent basis, Debye-Ang):
   XX=            -18.8705   YY=            -18.9275   ZZ=            -21.4776
   XY=             -0.1705   XZ=             -0.0000   YZ=              0.0000

 Normal termination of Gaussian 16 at Sat Aug 14 07:23:23 2021.
