 Gaussian 16, Revision C.01,
 Gaussian 16:  EM64L-G16RevC.01  3-Jul-2019

 ----------------------------------------------------------------------
 #P TD(Nstates=10000) wB97XD/def2SVP SCF(maxcycles=100) Int(Grid=ultraf
 ine)
 ----------------------------------------------------------------------

 ---------------------
 xGDB7_00001_tier4.com
 ---------------------
 Symbolic Z-matrix:
 Charge =  0 Multiplicity = 1

                         Standard orientation:
 ---------------------------------------------------------------------
 Center     Atomic      Atomic             Coordinates (Angstroms)
 Number     Number       Type             X           Y           Z
 ---------------------------------------------------------------------
      1          8           0        0.000000    0.000000    0.595593
      2          8           0        0.000000    0.000000   -0.595593
 ---------------------------------------------------------------------

 SCF Done:  E(RwB97XD) =  -150.092501472     A.U. after    9 cycles

 Excitation energies and oscillator strengths:

 Excited state symmetry could not be determined.
 Excited State   1:      Singlet-?Sym    0.0020 eV 611989.69 nm  f=0.0000  <S**2>=0.000
       3 -> 21         0.10921
       8 ->  9        -8.42593
       8 -> 16         0.15483
       3 <- 21         0.10920
       8 <-  9        -8.39622
       8 <- 16         0.15404
 This state for optimization and/or second-order correction.
 Total Energy, E(TD-HF/TD-DFT) =  -150.092427021
 Copying the excited state density for this state as the 1-particle RhoCI density.

 Excited state symmetry could not be determined.
 Excited State   2:      Singlet-?Sym    6.8958 eV  179.80 nm  f=0.0000  <S**2>=0.000
       7 ->  9         0.70721

 Excited state symmetry could not be determined.
 Excited State   3:      Singlet-?Sym    7.7074 eV  160.86 nm  f=0.0000  <S**2>=0.000
       5 ->  9         0.70748

 Excited state symmetry could not be determined.
 Excited State   4:      Singlet-?Sym   10.5736 eV  117.26 nm  f=0.1673  <S**2>=0.000
       5 -> 10         0.17870
       6 ->  9         0.69079
       6 <-  9        -0.11140

 Excited state symmetry could not be determined.
 Excited State   5:      Singlet-?Sym   11.5158 eV  107.66 nm  f=0.0049  <S**2>=0.000
       8 -> 10         0.70663

 Excited state symmetry could not be determined.
 Excited State   6:      Singlet-?Sym   16.3762 eV   75.71 nm  f=0.1778  <S**2>=0.000
       4 ->  9         0.70818

 Excited state symmetry could not be determined.
 Excited State   7:      Singlet-?Sym   18.8847 eV   65.65 nm  f=0.0000  <S**2>=0.000
       6 -> 10         0.70473

 Excited state symmetry could not be determined.
 Excited State   8:      Singlet-?Sym   18.9571 eV   65.40 nm  f=0.0000  <S**2>=0.000
       7 -> 10         0.70579

 Excited State   9:      Singlet-SGU   21.9221 eV   56.56 nm  f=1.2130  <S**2>=0.000
       5 -> 10         0.66499
       6 ->  9        -0.16701
       8 -> 14         0.16675

 Excited state symmetry could not be determined.
 Excited State  10:      Singlet-?Sym   24.5036 eV   50.60 nm  f=0.0000  <S**2>=0.000
       8 -> 11         0.70407

 Excited state symmetry could not be determined.
 Excited State  11:      Singlet-?Sym   26.7407 eV   46.37 nm  f=0.0000  <S**2>=0.000
       8 -> 12         0.70468

 Excited State  12:      Singlet-SGG   27.0206 eV   45.89 nm  f=0.0000  <S**2>=0.000
       4 -> 10         0.69285

 Excited state symmetry could not be determined.
 Excited State  13:      Singlet-?Sym   27.3631 eV   45.31 nm  f=0.0980  <S**2>=0.000
       8 -> 13         0.70080

 Excited state symmetry could not be determined.
 Excited State  14:      Singlet-?Sym   28.8288 eV   43.01 nm  f=0.0807  <S**2>=0.000
       5 -> 10        -0.12429
       5 -> 13         0.16067
       8 -> 14         0.65867

 Excited state symmetry could not be determined.
 Excited State  15:      Singlet-?Sym   28.8545 eV   42.97 nm  f=0.0000  <S**2>=0.000
       8 -> 15         0.69860

 Excited state symmetry could not be determined.
 Excited State  16:      Singlet-?Sym   28.9505 eV   42.83 nm  f=0.0000  <S**2>=0.000
       3 ->  9         0.70322

 Excited state symmetry could not be determined.
 Excited State  17:      Singlet-?Sym   30.2054 eV   41.05 nm  f=0.0000  <S**2>=0.000
       7 -> 12        -0.14409
       8 -> 16         0.69207

 Excited state symmetry could not be determined.
 Excited State  18:      Singlet-?Sym   31.7500 eV   39.05 nm  f=0.0000  <S**2>=0.000
       5 -> 11         0.12312
       5 -> 15        -0.11178
       6 -> 12         0.23175
       8 -> 17         0.63888

 Excited state symmetry could not be determined.
 Excited State  19:      Singlet-?Sym   32.4283 eV   38.23 nm  f=0.3572  <S**2>=0.000
       6 -> 11         0.70631

 Excited state symmetry could not be determined.
 Excited State  20:      Singlet-?Sym   32.4498 eV   38.21 nm  f=0.3112  <S**2>=0.000
       7 -> 11         0.70334

 Excited State  21:      Singlet-SGG   33.2788 eV   37.26 nm  f=0.0000  <S**2>=0.000
       5 -> 11         0.67420
       6 -> 12        -0.15514

 Excited state symmetry could not be determined.
 Excited State  22:      Singlet-?Sym   34.5842 eV   35.85 nm  f=0.0000  <S**2>=0.000
       7 -> 12         0.68780
       8 -> 16         0.14356

 Excited state symmetry could not be determined.
 Excited State  23:      Singlet-?Sym   34.7259 eV   35.70 nm  f=0.0000  <S**2>=0.000
       6 -> 12         0.48780
       7 -> 14        -0.48236
       8 -> 17        -0.14516

 Excited state symmetry could not be determined.
 Excited State  24:      Singlet-?Sym   34.8250 eV   35.60 nm  f=0.0970  <S**2>=0.000
       5 -> 12         0.70265

 Excited state symmetry could not be determined.
 Excited State  25:      Singlet-?Sym   34.9763 eV   35.45 nm  f=0.0000  <S**2>=0.000
       6 -> 14         0.70269

 Excited state symmetry could not be determined.
 Excited State  26:      Singlet-?Sym   35.1169 eV   35.31 nm  f=0.0000  <S**2>=0.000
       6 -> 13         0.70548

 Excited state symmetry could not be determined.
 Excited State  27:      Singlet-?Sym   35.2541 eV   35.17 nm  f=0.0000  <S**2>=0.000
       7 -> 13         0.69902

 Excited state symmetry could not be determined.
 Excited State  28:      Singlet-?Sym   35.4098 eV   35.01 nm  f=0.0847  <S**2>=0.000
       5 -> 14         0.70223

 Excited State  29:      Singlet-SGG   36.1529 eV   34.29 nm  f=0.0000  <S**2>=0.000
       4 -> 13         0.12969
       5 -> 15         0.51559
       6 -> 12         0.26451
       7 -> 14         0.37459

 Excited State  30:      Singlet-SGU   36.4636 eV   34.00 nm  f=0.0166  <S**2>=0.000
       5 -> 13         0.59941
       6 -> 16        -0.28368
       7 -> 17        -0.18813

 Excited state symmetry could not be determined.
 Excited State  31:      Singlet-?Sym   36.7795 eV   33.71 nm  f=0.2415  <S**2>=0.000
       7 -> 15         0.56845
       8 -> 18        -0.41040

 Excited state symmetry could not be determined.
 Excited State  32:      Singlet-?Sym   36.8702 eV   33.63 nm  f=0.0576  <S**2>=0.000
       6 -> 15         0.70440

 Excited state symmetry could not be determined.
 Excited State  33:      Singlet-?Sym   37.1407 eV   33.38 nm  f=0.0779  <S**2>=0.000
       7 -> 15         0.41111
       8 -> 18         0.57425

 Excited state symmetry could not be determined.
 Excited State  34:      Singlet-?Sym   38.0527 eV   32.58 nm  f=0.0000  <S**2>=0.000
       6 -> 17         0.18788
       7 -> 16         0.67923

 Excited state symmetry could not be determined.
 Excited State  35:      Singlet-?Sym   38.0799 eV   32.56 nm  f=0.0074  <S**2>=0.000
       6 -> 16         0.51971
       7 -> 17        -0.46204

 Excited state symmetry could not be determined.
 Excited State  36:      Singlet-?Sym   38.1884 eV   32.47 nm  f=0.0000  <S**2>=0.000
       4 -> 12        -0.15014
       5 -> 16         0.69020

 Excited state symmetry could not be determined.
 Excited State  37:      Singlet-?Sym   38.3498 eV   32.33 nm  f=0.0000  <S**2>=0.000
       6 -> 17         0.68169
       7 -> 16        -0.18743

 Excited state symmetry could not be determined.
 Excited State  38:      Singlet-?Sym   38.5933 eV   32.13 nm  f=0.0000  <S**2>=0.000
       4 -> 14        -0.13094
       5 -> 17         0.69478

 Excited State  39:      Singlet-SGU   38.9860 eV   31.80 nm  f=0.2112  <S**2>=0.000
       3 -> 10         0.27148
       4 -> 11         0.40813
       5 -> 13         0.16104
       6 -> 16         0.25992
       7 -> 17         0.40727

 Excited State  40:      Singlet-SGU   40.1292 eV   30.90 nm  f=0.0801  <S**2>=0.000
       3 -> 10        -0.48118
       4 -> 11         0.49078

 Excited State  41:      Singlet-SGG   41.2618 eV   30.05 nm  f=0.0000  <S**2>=0.000
       4 -> 13         0.42372
       5 -> 15        -0.41365
       6 -> 12         0.22835
       7 -> 14         0.23298
       8 -> 17        -0.14741

 Excited state symmetry could not be determined.
 Excited State  42:      Singlet-?Sym   42.0899 eV   29.46 nm  f=0.0000  <S**2>=0.000
       4 -> 12         0.69035
       5 -> 16         0.14999

 Excited state symmetry could not be determined.
 Excited State  43:      Singlet-?Sym   42.6227 eV   29.09 nm  f=0.0000  <S**2>=0.000
       4 -> 14         0.69357
       5 -> 17         0.13095

 Excited State  44:      Singlet-SGU   43.6961 eV   28.37 nm  f=0.2927  <S**2>=0.000
       3 -> 10         0.12857
       4 -> 15         0.60718
       5 -> 13        -0.12005
       5 -> 18        -0.30493

 Excited state symmetry could not be determined.
 Excited State  45:      Singlet-?Sym   44.3209 eV   27.97 nm  f=0.0000  <S**2>=0.000
       6 -> 18         0.70688

 Excited state symmetry could not be determined.
 Excited State  46:      Singlet-?Sym   44.4075 eV   27.92 nm  f=0.0000  <S**2>=0.000
       7 -> 18         0.70583

 Excited State  47:      Singlet-SGU   44.9629 eV   27.57 nm  f=0.0304  <S**2>=0.000
       4 -> 15         0.33097
       5 -> 18         0.61846

 Excited State  48:      Singlet-SGG   45.0943 eV   27.49 nm  f=0.0000  <S**2>=0.000
       3 -> 11         0.14517
       4 -> 13         0.53663
       4 -> 18        -0.17273
       5 -> 15         0.16600
       6 -> 12        -0.22136
       7 -> 14        -0.22629
       8 -> 17         0.15751

 Excited state symmetry could not be determined.
 Excited State  49:      Singlet-?Sym   45.4619 eV   27.27 nm  f=0.2234  <S**2>=0.000
       4 -> 16         0.70467

 Excited state symmetry could not be determined.
 Excited State  50:      Singlet-?Sym   45.8337 eV   27.05 nm  f=0.2324  <S**2>=0.000
       4 -> 17         0.70505

 Excited State  51:      Singlet-SGU   49.2690 eV   25.16 nm  f=0.0313  <S**2>=0.000
       3 -> 10         0.39488
       3 -> 18         0.11836
       4 -> 11         0.25502
       4 -> 15        -0.11384
       5 -> 10        -0.11052
       5 -> 13        -0.22521
       5 -> 18         0.14945
       6 ->  9         0.12639
       6 -> 16        -0.25517
       7 -> 17        -0.25978
       8 -> 14         0.15816
       8 -> 20        -0.11341

 Excited State  52:      Singlet-SGG   52.1152 eV   23.79 nm  f=0.0000  <S**2>=0.000
       3 -> 11         0.30583
       4 -> 18         0.62837

 Excited State  53:      Singlet-SGG   55.1522 eV   22.48 nm  f=0.0000  <S**2>=0.000
       3 -> 11         0.59735
       3 -> 15        -0.20030
       4 -> 18        -0.24768

 Excited state symmetry could not be determined.
 Excited State  54:      Singlet-?Sym   55.6319 eV   22.29 nm  f=0.1153  <S**2>=0.000
       3 -> 12         0.70607

 Excited state symmetry could not be determined.
 Excited State  55:      Singlet-?Sym   56.1791 eV   22.07 nm  f=0.1300  <S**2>=0.000
       3 -> 14         0.70611

 Excited State  56:      Singlet-SGU   56.3507 eV   22.00 nm  f=0.0450  <S**2>=0.000
       3 -> 13         0.70402

 Excited State  57:      Singlet-SGG   58.8582 eV   21.06 nm  f=0.0000  <S**2>=0.000
       3 -> 11         0.13962
       3 -> 15         0.67073

 Excited state symmetry could not be determined.
 Excited State  58:      Singlet-?Sym   59.2431 eV   20.93 nm  f=0.0000  <S**2>=0.000
       3 -> 16         0.70581

 Excited state symmetry could not be determined.
 Excited State  59:      Singlet-?Sym   59.5466 eV   20.82 nm  f=0.0000  <S**2>=0.000
       3 -> 17         0.70585

 Excited state symmetry could not be determined.
 Excited State  60:      Singlet-?Sym   60.1555 eV   20.61 nm  f=0.0000  <S**2>=0.000
       8 -> 19         0.70684

 Excited state symmetry could not be determined.
 Excited State  61:      Singlet-?Sym   63.5506 eV   19.51 nm  f=1.2185  <S**2>=0.000
       3 -> 18         0.17426
       8 -> 20         0.67763

 Excited State  62:      Singlet-SGU   67.3072 eV   18.42 nm  f=0.1473  <S**2>=0.000
       3 -> 18         0.67355
       8 -> 20        -0.15473

 Excited state symmetry could not be determined.
 Excited State  63:      Singlet-?Sym   67.7721 eV   18.29 nm  f=0.0000  <S**2>=0.000
       7 -> 19         0.70616

 Excited state symmetry could not be determined.
 Excited State  64:      Singlet-?Sym   68.2367 eV   18.17 nm  f=0.0000  <S**2>=0.000
       6 -> 19         0.55118
       7 -> 20        -0.44224

 Excited state symmetry could not be determined.
 Excited State  65:      Singlet-?Sym   68.7294 eV   18.04 nm  f=0.0000  <S**2>=0.000
       6 -> 20         0.70666

 Excited state symmetry could not be determined.
 Excited State  66:      Singlet-?Sym   69.2163 eV   17.91 nm  f=0.0000  <S**2>=0.000
       8 -> 22         0.69670

 Excited state symmetry could not be determined.
 Excited State  67:      Singlet-?Sym   69.2700 eV   17.90 nm  f=0.0000  <S**2>=0.000
       8 -> 21         0.69691

 Excited state symmetry could not be determined.
 Excited State  68:      Singlet-?Sym   69.2852 eV   17.89 nm  f=0.1144  <S**2>=0.000
       5 -> 19         0.67811
       6 -> 22        -0.10673
       7 -> 21        -0.12579
       8 -> 23        -0.11161

 Excited state symmetry could not be determined.
 Excited State  69:      Singlet-?Sym   70.1210 eV   17.68 nm  f=0.0939  <S**2>=0.000
       5 -> 20         0.67528
       6 -> 21        -0.11006
       7 -> 22         0.13260
       8 -> 24         0.11745

 Excited state symmetry could not be determined.
 Excited State  70:      Singlet-?Sym   72.5587 eV   17.09 nm  f=0.0000  <S**2>=0.000
       5 -> 25        -0.11140
       6 -> 19         0.42882
       7 -> 20         0.54144

 Excited state symmetry could not be determined.
 Excited State  71:      Singlet-?Sym   75.3474 eV   16.46 nm  f=0.0026  <S**2>=0.000
       6 -> 21         0.55696
       7 -> 22         0.38366
       8 -> 24         0.20522

 Excited state symmetry could not be determined.
 Excited State  72:      Singlet-?Sym   75.3557 eV   16.45 nm  f=0.0028  <S**2>=0.000
       6 -> 22         0.55609
       7 -> 21        -0.38529
       8 -> 23        -0.20474

 Excited state symmetry could not be determined.
 Excited State  73:      Singlet-?Sym   76.0183 eV   16.31 nm  f=0.0000  <S**2>=0.000
       4 -> 19         0.69615

 Excited state symmetry could not be determined.
 Excited State  74:      Singlet-?Sym   76.1477 eV   16.28 nm  f=0.0000  <S**2>=0.000
       5 -> 21         0.70617

 Excited state symmetry could not be determined.
 Excited State  75:      Singlet-?Sym   76.1796 eV   16.28 nm  f=0.0000  <S**2>=0.000
       5 -> 22         0.70541

 Excited state symmetry could not be determined.
 Excited State  76:      Singlet-?Sym   76.8921 eV   16.12 nm  f=0.0000  <S**2>=0.000
       4 -> 20         0.69561

 Excited state symmetry could not be determined.
 Excited State  77:      Singlet-?Sym   77.2150 eV   16.06 nm  f=0.0173  <S**2>=0.000
       6 -> 22        -0.13063
       7 -> 21        -0.46269
       8 -> 23         0.51782

 Excited state symmetry could not be determined.
 Excited State  78:      Singlet-?Sym   77.2500 eV   16.05 nm  f=0.0193  <S**2>=0.000
       6 -> 21         0.13207
       7 -> 22        -0.46564
       8 -> 24         0.51469

 Excited state symmetry could not be determined.
 Excited State  79:      Singlet-?Sym   80.9357 eV   15.32 nm  f=0.0000  <S**2>=0.000
       6 -> 23         0.13919
       7 -> 24        -0.13307
       8 -> 25         0.67669

 Excited state symmetry could not be determined.
 Excited State  80:      Singlet-?Sym   81.9454 eV   15.13 nm  f=2.2783  <S**2>=0.000
       3 -> 19         0.15427
       5 -> 19         0.18375
       6 -> 22         0.38337
       6 -> 25         0.16108
       7 -> 21         0.32721
       8 -> 23         0.40239

 Excited state symmetry could not be determined.
 Excited State  81:      Singlet-?Sym   81.9774 eV   15.12 nm  f=2.1080  <S**2>=0.000
       3 -> 20        -0.13302
       5 -> 20        -0.18938
       6 -> 21        -0.37750
       7 -> 22         0.31885
       7 -> 25        -0.19902
       8 -> 24         0.40058

 Excited state symmetry could not be determined.
 Excited State  82:      Singlet-?Sym   83.2951 eV   14.88 nm  f=0.0001  <S**2>=0.000
       4 -> 22         0.65391
       5 -> 24         0.26877

 Excited state symmetry could not be determined.
 Excited State  83:      Singlet-?Sym   83.2990 eV   14.88 nm  f=0.0000  <S**2>=0.000
       4 -> 21         0.65416
       5 -> 23         0.26830

 Excited state symmetry could not be determined.
 Excited State  84:      Singlet-?Sym   84.1867 eV   14.73 nm  f=0.0000  <S**2>=0.000
       6 -> 24         0.50213
       7 -> 23        -0.49658

 Excited state symmetry could not be determined.
 Excited State  85:      Singlet-?Sym   84.1886 eV   14.73 nm  f=0.0000  <S**2>=0.000
       6 -> 23         0.50190
       7 -> 24         0.49669

 Excited state symmetry could not be determined.
 Excited State  86:      Singlet-?Sym   85.0684 eV   14.57 nm  f=0.0000  <S**2>=0.000
       4 -> 21        -0.26835
       5 -> 23         0.65379

 Excited state symmetry could not be determined.
 Excited State  87:      Singlet-?Sym   85.1099 eV   14.57 nm  f=0.0000  <S**2>=0.000
       4 -> 22        -0.26884
       5 -> 24         0.65359

 Excited state symmetry could not be determined.
 Excited State  88:      Singlet-?Sym   86.9827 eV   14.25 nm  f=0.0000  <S**2>=0.000
       6 -> 24         0.48685
       7 -> 23         0.49630

 Excited state symmetry could not be determined.
 Excited State  89:      Singlet-?Sym   87.6359 eV   14.15 nm  f=0.0000  <S**2>=0.000
       6 -> 23        -0.46735
       7 -> 24         0.47856
       8 -> 25         0.17747

 Excited state symmetry could not be determined.
 Excited State  90:      Singlet-?Sym   88.6764 eV   13.98 nm  f=0.1464  <S**2>=0.000
       3 -> 19        -0.21398
       6 -> 25         0.66443

 Excited state symmetry could not be determined.
 Excited State  91:      Singlet-?Sym   88.9861 eV   13.93 nm  f=0.2714  <S**2>=0.000
       3 -> 20        -0.22896
       7 -> 25         0.65155

 Excited state symmetry could not be determined.
 Excited State  92:      Singlet-?Sym   90.3188 eV   13.73 nm  f=0.0000  <S**2>=0.000
       5 -> 25         0.66308
       8 -> 27        -0.22857

 Excited state symmetry could not be determined.
 Excited State  93:      Singlet-?Sym   91.1669 eV   13.60 nm  f=0.6590  <S**2>=0.000
       3 -> 19         0.65586
       6 -> 22        -0.11122
       6 -> 25         0.17892
       7 -> 21        -0.10618
       8 -> 23        -0.10422

 Excited state symmetry could not be determined.
 Excited State  94:      Singlet-?Sym   91.9792 eV   13.48 nm  f=0.6461  <S**2>=0.000
       3 -> 20         0.65531
       6 -> 21        -0.10677
       7 -> 22         0.10208
       7 -> 25         0.18772
       8 -> 24         0.10084

 Excited state symmetry could not be determined.
 Excited State  95:      Singlet-?Sym   92.3640 eV   13.42 nm  f=0.0000  <S**2>=0.000
       4 -> 23         0.70622

 Excited state symmetry could not be determined.
 Excited State  96:      Singlet-?Sym   92.3805 eV   13.42 nm  f=0.0000  <S**2>=0.000
       4 -> 24         0.70629

 Excited state symmetry could not be determined.
 Excited State  97:      Singlet-?Sym   93.9351 eV   13.20 nm  f=0.0000  <S**2>=0.000
       8 -> 26         0.70623

 Excited state symmetry could not be determined.
 Excited State  98:      Singlet-?Sym   96.1608 eV   12.89 nm  f=0.0008  <S**2>=0.000
       4 -> 25         0.69891

 Excited state symmetry could not be determined.
 Excited State  99:      Singlet-?Sym   97.2302 eV   12.75 nm  f=0.0000  <S**2>=0.000
       3 -> 22         0.62751
       8 -> 27        -0.30554

 Excited state symmetry could not be determined.
 Excited State 100:      Singlet-?Sym   97.3016 eV   12.74 nm  f=0.0000  <S**2>=0.000
       3 -> 21         0.70622

 Excited state symmetry could not be determined.
 Excited State 101:      Singlet-?Sym   97.6367 eV   12.70 nm  f=0.0000  <S**2>=0.000
       3 -> 22         0.32491
       5 -> 25         0.19279
       8 -> 27         0.58968

 Excited state symmetry could not be determined.
 Excited State 102:      Singlet-?Sym  101.4849 eV   12.22 nm  f=0.0000  <S**2>=0.000
       7 -> 26         0.70328

 Excited state symmetry could not be determined.
 Excited State 103:      Singlet-?Sym  101.7598 eV   12.18 nm  f=0.0190  <S**2>=0.000
       6 -> 26         0.60049
       7 -> 27        -0.37078

 Excited state symmetry could not be determined.
 Excited State 104:      Singlet-?Sym  102.4956 eV   12.10 nm  f=0.0000  <S**2>=0.000
       6 -> 27         0.70350

 Excited state symmetry could not be determined.
 Excited State 105:      Singlet-?Sym  103.3257 eV   12.00 nm  f=0.0000  <S**2>=0.000
       5 -> 26         0.70038

 Excited state symmetry could not be determined.
 Excited State 106:      Singlet-?Sym  104.0532 eV   11.92 nm  f=0.2573  <S**2>=0.000
       6 -> 26         0.35733
       7 -> 27         0.59371

 Excited state symmetry could not be determined.
 Excited State 107:      Singlet-?Sym  104.4448 eV   11.87 nm  f=0.0000  <S**2>=0.000
       5 -> 27         0.69866

 Excited state symmetry could not be determined.
 Excited State 108:      Singlet-?Sym  105.5931 eV   11.74 nm  f=0.0000  <S**2>=0.000
       3 -> 23         0.70662

 Excited state symmetry could not be determined.
 Excited State 109:      Singlet-?Sym  105.6243 eV   11.74 nm  f=0.0000  <S**2>=0.000
       3 -> 24         0.70654

 Excited state symmetry could not be determined.
 Excited State 110:      Singlet-?Sym  108.2328 eV   11.46 nm  f=0.1240  <S**2>=0.000
       4 -> 27         0.10355
       8 -> 28         0.69762

 Excited state symmetry could not be determined.
 Excited State 111:      Singlet-?Sym  109.5231 eV   11.32 nm  f=0.0325  <S**2>=0.000
       4 -> 26         0.70672

 Excited state symmetry could not be determined.
 Excited State 112:      Singlet-?Sym  110.6337 eV   11.21 nm  f=0.0000  <S**2>=0.000
       3 -> 25         0.70311

 Excited state symmetry could not be determined.
 Excited State 113:      Singlet-?Sym  110.6682 eV   11.20 nm  f=0.0553  <S**2>=0.000
       4 -> 27         0.69914
       8 -> 28        -0.10273

 Excited state symmetry could not be determined.
 Excited State 114:      Singlet-?Sym  115.6032 eV   10.72 nm  f=0.0000  <S**2>=0.000
       6 -> 28         0.70485

 Excited state symmetry could not be determined.
 Excited State 115:      Singlet-?Sym  115.7200 eV   10.71 nm  f=0.0000  <S**2>=0.000
       7 -> 28         0.70424

 Excited State 116:      Singlet-SGU  117.3928 eV   10.56 nm  f=0.2170  <S**2>=0.000
       5 -> 28         0.69972

 Excited state symmetry could not be determined.
 Excited State 117:      Singlet-?Sym  122.8498 eV   10.09 nm  f=0.0000  <S**2>=0.000
       3 -> 26         0.70648

 Excited State 118:      Singlet-SGG  123.2081 eV   10.06 nm  f=0.0000  <S**2>=0.000
       4 -> 28         0.70671

 Excited state symmetry could not be determined.
 Excited State 119:      Singlet-?Sym  123.8328 eV   10.01 nm  f=0.0000  <S**2>=0.000
       3 -> 27         0.70643

 Excited State 120:      Singlet-SGU  136.9498 eV    9.05 nm  f=0.0014  <S**2>=0.000
       3 -> 28         0.70682

 Unable to determine electronic state:  partially filled degenerate orbitals.
 Alpha  occ. eigenvalues --  -19.40641 -19.40624  -1.39152  -0.87232  -0.62526
 Alpha  occ. eigenvalues --   -0.61591  -0.61308  -0.33352
 Alpha virt. eigenvalues --   -0.09230   0.34134   0.81712   0.91612   0.92528
 Alpha virt. eigenvalues --    0.93377   0.98753   1.03993   1.04879   1.26861
 Alpha virt. eigenvalues --    2.16316   2.19411   2.44864   2.44987   2.76569

 Mulliken charges:
               1
     1  O   -0.000000
     2  O   -0.000000
 Sum of Mulliken charges =  -0.00000

 Dipole moment (field-independent basis, Debye):
    X=             -0.0000    Y=              0.0000    Z=             -0.0000  Tot=              0.0000
 Quadrupole moment (field-independent basis, Debye-Ang):
   XX=             -8.8870   YY=            -10.6471   ZZ=            -10.5701
   XY=              0.0000   XZ=              0.0000   YZ=              0.0000

 Normal termination of Gaussian 16 at Sat Aug 14 23:27:27 2021.
