 Gaussian 16, Revision C.01,
 Gaussian 16:  EM64L-G16RevC.01  3-Jul-2019

 ----------------------------------------------------------------------
 #P TD(Nstates=10000) wB97XD/def2SVP SCF(maxcycles=100) Int(Grid=ultraf
 ine)
 ----------------------------------------------------------------------

 ---------------------
 xGDB7_00001_tier4.com
 ---------------------
 Symbolic Z-matrix:
 Charge =  0 Multiplicity = 1

                         Standard orientation:
 ---------------------------------------------------------------------
 Center     Atomic      Atomic             Coordinates (Angstroms)
 Number     Number       Type             X           Y           Z
 ---------------------------------------------------------------------
      1          6           0       -0.751618   -0.433594   -0.000000
      2          6           0        0.000308    0.867700   -0.000000
      3          6           0        0.751309   -0.434132   -0.000000
      4          1           0       -1.266926   -0.730804   -0.916822
      5          1           0       -1.266940   -0.730780    0.916822
      6          1           0        0.000547    1.462579    0.916811
      7          1           0        0.000520    1.462578   -0.916811
      8          1           0        1.266397   -0.731718    0.916817
      9          1           0        1.266411   -0.731697   -0.916816
 ---------------------------------------------------------------------

 SCF Done:  E(RwB97XD) =  -117.774701084     A.U. after   11 cycles

 Excitation energies and oscillator strengths:

 Excited State   1:      Singlet-A      9.4367 eV  131.39 nm  f=0.0000  <S**2>=0.000
      12 -> 14         0.70366
 This state for optimization and/or second-order correction.
 Total Energy, E(TD-HF/TD-DFT) =  -117.427909990
 Copying the excited state density for this state as the 1-particle RhoCI density.

 Excited State   2:      Singlet-A      9.4369 eV  131.38 nm  f=0.0000  <S**2>=0.000
      11 -> 14         0.70365

 Excited State   3:      Singlet-A      9.4733 eV  130.88 nm  f=0.0131  <S**2>=0.000
      12 -> 13         0.70336

 Excited State   4:      Singlet-A      9.4735 eV  130.87 nm  f=0.0131  <S**2>=0.000
      11 -> 13         0.70336

 Excited State   5:      Singlet-A     10.6794 eV  116.10 nm  f=0.0000  <S**2>=0.000
      11 -> 15         0.49661
      12 -> 16         0.49660

 Excited State   6:      Singlet-A     10.9136 eV  113.61 nm  f=0.0754  <S**2>=0.000
      11 -> 16         0.48229
      12 -> 15         0.48492
      12 -> 17        -0.10639

 Excited State   7:      Singlet-A     10.9136 eV  113.60 nm  f=0.0755  <S**2>=0.000
      11 -> 15        -0.48359
      11 -> 17        -0.10634
      12 -> 16         0.48364

 Excited State   8:      Singlet-A     11.0051 eV  112.66 nm  f=0.0000  <S**2>=0.000
      11 -> 16         0.49764
      12 -> 15        -0.49504

 Excited State   9:      Singlet-A     11.1772 eV  110.93 nm  f=0.0000  <S**2>=0.000
       9 -> 15         0.12179
      10 -> 13         0.68130
      10 -> 16         0.12177

 Excited State  10:      Singlet-A     11.1773 eV  110.92 nm  f=0.0000  <S**2>=0.000
       9 -> 13         0.68129
       9 -> 16        -0.12178
      10 -> 15         0.12181

 Excited State  11:      Singlet-A     11.5097 eV  107.72 nm  f=0.5279  <S**2>=0.000
      10 -> 14        -0.18719
      11 -> 21        -0.10110
      12 -> 17         0.63721
      12 -> 20         0.10110

 Excited State  12:      Singlet-A     11.5099 eV  107.72 nm  f=0.5279  <S**2>=0.000
       9 -> 14         0.18733
      11 -> 17         0.63717
      11 -> 20        -0.10110
      12 -> 21        -0.10111

 Excited State  13:      Singlet-A     11.6265 eV  106.64 nm  f=0.1204  <S**2>=0.000
      10 -> 14         0.67230
      12 -> 17         0.20092

 Excited State  14:      Singlet-A     11.6267 eV  106.64 nm  f=0.1203  <S**2>=0.000
       9 -> 14         0.67226
      11 -> 17        -0.20106

 Excited State  15:      Singlet-A     12.4335 eV   99.72 nm  f=0.0000  <S**2>=0.000
       9 -> 15        -0.13922
       9 -> 17         0.63513
      10 -> 16        -0.13793
      11 -> 19        -0.14066
      12 -> 18         0.14065

 Excited State  16:      Singlet-A     12.4336 eV   99.72 nm  f=0.0000  <S**2>=0.000
       9 -> 16        -0.13805
      10 -> 15         0.13859
      10 -> 17         0.63520
      11 -> 18        -0.13730
      12 -> 19        -0.14412

 Excited State  17:      Singlet-A     12.4387 eV   99.68 nm  f=0.0000  <S**2>=0.000
      11 -> 18         0.49576
      12 -> 19        -0.49385

 Excited State  18:      Singlet-A     12.4855 eV   99.30 nm  f=0.6836  <S**2>=0.000
       9 -> 15        -0.48316
      10 -> 16         0.48337

 Excited State  19:      Singlet-A     12.6687 eV   97.87 nm  f=0.0000  <S**2>=0.000
       9 -> 15         0.17230
       9 -> 17        -0.12285
      10 -> 16         0.17275
      11 -> 19        -0.44968
      12 -> 18         0.45028

 Excited State  20:      Singlet-A     12.6688 eV   97.87 nm  f=0.0000  <S**2>=0.000
       9 -> 16        -0.17252
      10 -> 15         0.17265
      10 -> 17         0.12301
      11 -> 18         0.44998
      12 -> 19         0.44989

 Excited State  21:      Singlet-A     12.8406 eV   96.56 nm  f=0.0000  <S**2>=0.000
       9 -> 13        -0.14156
       9 -> 16        -0.42719
      10 -> 15         0.42845
      10 -> 17        -0.26496
      11 -> 18        -0.13862
      12 -> 19        -0.13844

 Excited State  22:      Singlet-A     12.8407 eV   96.56 nm  f=0.0000  <S**2>=0.000
       9 -> 15         0.42782
       9 -> 17         0.26525
      10 -> 13        -0.14154
      10 -> 16         0.42771
      11 -> 19         0.13801
      12 -> 18        -0.13886

 Excited State  23:      Singlet-A     12.8992 eV   96.12 nm  f=0.0327  <S**2>=0.000
      11 -> 19         0.48300
      12 -> 18         0.48208

 Excited State  24:      Singlet-A     12.9999 eV   95.37 nm  f=0.0000  <S**2>=0.000
       9 -> 16         0.49021
      10 -> 15         0.48911

 Excited State  25:      Singlet-A     13.5158 eV   91.73 nm  f=0.0000  <S**2>=0.000
      11 -> 20        -0.45305
      11 -> 21        -0.20208
      12 -> 20        -0.20216
      12 -> 21         0.45318

 Excited State  26:      Singlet-A     13.8993 eV   89.20 nm  f=0.0000  <S**2>=0.000
       7 -> 14        -0.15785
       9 -> 18        -0.17440
      10 -> 19        -0.17427
      11 -> 20        -0.18210
      11 -> 21         0.40816
      12 -> 20         0.40875
      12 -> 21         0.18231

 Excited State  27:      Singlet-A     14.0837 eV   88.03 nm  f=0.3115  <S**2>=0.000
       9 -> 19        -0.10740
      10 -> 18        -0.10744
      11 -> 17         0.11736
      11 -> 20         0.45697
      11 -> 21         0.12238
      12 -> 20        -0.12235
      12 -> 21         0.45682

 Excited State  28:      Singlet-A     14.0837 eV   88.03 nm  f=0.3115  <S**2>=0.000
       9 -> 18         0.10726
      10 -> 19        -0.10756
      11 -> 20        -0.12245
      11 -> 21         0.45715
      12 -> 17         0.11736
      12 -> 20        -0.45664
      12 -> 21        -0.12228

 Excited State  29:      Singlet-A     14.3361 eV   86.48 nm  f=0.1211  <S**2>=0.000
       8 -> 14         0.68404

 Excited State  30:      Singlet-A     14.3583 eV   86.35 nm  f=0.0000  <S**2>=0.000
       8 -> 13         0.64691
       9 -> 18        -0.15368
      10 -> 19        -0.15363
      11 -> 21        -0.11133
      12 -> 20        -0.11120

 Excited State  31:      Singlet-A     14.7867 eV   83.85 nm  f=0.0204  <S**2>=0.000
       9 -> 19         0.47613
      10 -> 18         0.47671

 Excited State  32:      Singlet-A     14.7868 eV   83.85 nm  f=0.0204  <S**2>=0.000
       9 -> 18        -0.47641
      10 -> 19         0.47644

 Excited State  33:      Singlet-A     15.0088 eV   82.61 nm  f=0.0000  <S**2>=0.000
       9 -> 19         0.49676
      10 -> 18        -0.49618

 Excited State  34:      Singlet-A     15.1018 eV   82.10 nm  f=0.0000  <S**2>=0.000
       7 -> 14        -0.19465
       8 -> 13         0.25239
       9 -> 18         0.42314
      10 -> 19         0.42311

 Excited State  35:      Singlet-A     15.1705 eV   81.73 nm  f=0.2959  <S**2>=0.000
       7 -> 13         0.69588

 Excited State  36:      Singlet-A     15.3822 eV   80.60 nm  f=0.0000  <S**2>=0.000
       8 -> 17         0.70146

 Excited State  37:      Singlet-A     15.6156 eV   79.40 nm  f=0.0000  <S**2>=0.000
       7 -> 14         0.64615
      11 -> 21         0.12307
      12 -> 20         0.12305

 Excited State  38:      Singlet-A     15.6233 eV   79.36 nm  f=0.2632  <S**2>=0.000
       8 -> 15         0.69258

 Excited State  39:      Singlet-A     15.6235 eV   79.36 nm  f=0.2632  <S**2>=0.000
       8 -> 16         0.69258

 Excited State  40:      Singlet-A     15.7193 eV   78.87 nm  f=0.0000  <S**2>=0.000
       7 -> 17        -0.38030
       9 -> 20         0.11166
       9 -> 21        -0.39882
      10 -> 20         0.39959
      10 -> 21         0.11179

 Excited State  41:      Singlet-A     15.7984 eV   78.48 nm  f=0.0000  <S**2>=0.000
       7 -> 16        -0.16210
       9 -> 20        -0.48017
      10 -> 21         0.48021

 Excited State  42:      Singlet-A     15.7984 eV   78.48 nm  f=0.0000  <S**2>=0.000
       7 -> 15        -0.16215
       9 -> 21         0.48046
      10 -> 20         0.47991

 Excited State  43:      Singlet-A     16.1550 eV   76.75 nm  f=0.5865  <S**2>=0.000
       8 -> 14        -0.12739
       9 -> 20         0.46401
       9 -> 21         0.12986
      10 -> 20        -0.12982
      10 -> 21         0.46394

 Excited State  44:      Singlet-A     16.2727 eV   76.19 nm  f=0.0000  <S**2>=0.000
       7 -> 17         0.59275
       9 -> 21        -0.26084
      10 -> 20         0.26064

 Excited State  45:      Singlet-A     16.4779 eV   75.24 nm  f=0.0000  <S**2>=0.000
       7 -> 15         0.67117
       8 -> 18        -0.10016
       9 -> 21         0.11499
      10 -> 20         0.11511

 Excited State  46:      Singlet-A     16.4781 eV   75.24 nm  f=0.0000  <S**2>=0.000
       7 -> 16         0.67118
       8 -> 19         0.10017
       9 -> 20        -0.11502
      10 -> 21         0.11500

 Excited State  47:      Singlet-A     17.2136 eV   72.03 nm  f=0.0000  <S**2>=0.000
       5 -> 14         0.32951
       8 -> 18         0.59943

 Excited State  48:      Singlet-A     17.2137 eV   72.03 nm  f=0.0000  <S**2>=0.000
       6 -> 14         0.32959
       8 -> 19         0.59938

 Excited State  49:      Singlet-A     17.3362 eV   71.52 nm  f=0.0180  <S**2>=0.000
      12 -> 22         0.69066

 Excited State  50:      Singlet-A     17.3364 eV   71.52 nm  f=0.0180  <S**2>=0.000
      11 -> 22         0.69065

 Excited State  51:      Singlet-A     18.0493 eV   68.69 nm  f=0.0001  <S**2>=0.000
       6 -> 13         0.67161
       7 -> 19        -0.14064

 Excited State  52:      Singlet-A     18.0495 eV   68.69 nm  f=0.0001  <S**2>=0.000
       5 -> 13         0.67160
       7 -> 18        -0.14073

 Excited State  53:      Singlet-A     18.1097 eV   68.46 nm  f=0.0000  <S**2>=0.000
       6 -> 14         0.57703
       8 -> 19        -0.34326
      11 -> 23         0.19022

 Excited State  54:      Singlet-A     18.1098 eV   68.46 nm  f=0.0000  <S**2>=0.000
       5 -> 14         0.57690
       8 -> 18        -0.34315
      12 -> 23         0.19078

 Excited State  55:      Singlet-A     18.2255 eV   68.03 nm  f=0.0000  <S**2>=0.000
       5 -> 14        -0.20369
       9 -> 22         0.10743
      12 -> 23         0.65322

 Excited State  56:      Singlet-A     18.2256 eV   68.03 nm  f=0.0000  <S**2>=0.000
       6 -> 14        -0.20319
      10 -> 22         0.10745
      11 -> 23         0.65337

 Excited State  57:      Singlet-A     18.4652 eV   67.14 nm  f=0.0498  <S**2>=0.000
       5 -> 13         0.10011
       7 -> 18         0.64497
       8 -> 20         0.21975

 Excited State  58:      Singlet-A     18.4653 eV   67.14 nm  f=0.0498  <S**2>=0.000
       6 -> 13         0.10003
       7 -> 19         0.64497
       8 -> 21         0.21978

 Excited State  59:      Singlet-A     19.0641 eV   65.04 nm  f=0.0973  <S**2>=0.000
       5 -> 13        -0.12792
       5 -> 16        -0.18912
       6 -> 15         0.18933
       7 -> 18        -0.15295
       8 -> 20         0.56179
       8 -> 21         0.14045
      12 -> 26         0.13756

 Excited State  60:      Singlet-A     19.0641 eV   65.04 nm  f=0.0973  <S**2>=0.000
       5 -> 15         0.18926
       6 -> 13        -0.12792
       6 -> 16         0.18923
       7 -> 19        -0.15299
       8 -> 20        -0.14045
       8 -> 21         0.56178
      11 -> 26         0.13755

 Excited State  61:      Singlet-A     19.3244 eV   64.16 nm  f=0.0060  <S**2>=0.000
       5 -> 15        -0.32269
       5 -> 17         0.48008
       6 -> 16        -0.32138
      11 -> 26         0.15873

 Excited State  62:      Singlet-A     19.3244 eV   64.16 nm  f=0.0060  <S**2>=0.000
       5 -> 16        -0.32178
       6 -> 15         0.32215
       6 -> 17         0.48022
      12 -> 26        -0.15868

 Excited State  63:      Singlet-A     19.3677 eV   64.02 nm  f=0.0000  <S**2>=0.000
       5 -> 15        -0.46973
       6 -> 16         0.47077
      11 -> 25         0.13819
      12 -> 24        -0.13843

 Excited State  64:      Singlet-A     19.4858 eV   63.63 nm  f=0.0000  <S**2>=0.000
      10 -> 22         0.68368

 Excited State  65:      Singlet-A     19.4860 eV   63.63 nm  f=0.0000  <S**2>=0.000
       9 -> 22         0.68368

 Excited State  66:      Singlet-A     19.5231 eV   63.51 nm  f=0.0000  <S**2>=0.000
       5 -> 16         0.48095
       6 -> 15         0.48352
      11 -> 24         0.10591
      12 -> 25         0.10711

 Excited State  67:      Singlet-A     19.5350 eV   63.47 nm  f=0.0000  <S**2>=0.000
       7 -> 20         0.68545

 Excited State  68:      Singlet-A     19.5351 eV   63.47 nm  f=0.0000  <S**2>=0.000
       7 -> 21         0.68546

 Excited State  69:      Singlet-A     19.5574 eV   63.39 nm  f=0.0000  <S**2>=0.000
       5 -> 16         0.29507
       6 -> 15        -0.29038
       6 -> 17         0.45936
       8 -> 20         0.16826
       9 -> 23        -0.16298
      11 -> 24         0.13150
      12 -> 25        -0.13037

 Excited State  70:      Singlet-A     19.5576 eV   63.39 nm  f=0.0000  <S**2>=0.000
       5 -> 15         0.29275
       5 -> 17         0.45950
       6 -> 16         0.29252
       8 -> 21        -0.16818
      10 -> 23         0.16302
      11 -> 25        -0.13101
      12 -> 24        -0.13092

 Excited State  71:      Singlet-A     20.2625 eV   61.19 nm  f=0.0000  <S**2>=0.000
       5 -> 16        -0.10775
       6 -> 15        -0.10753
      11 -> 24         0.48454
      12 -> 25         0.48371

 Excited State  72:      Singlet-A     20.3110 eV   61.04 nm  f=0.0006  <S**2>=0.000
       5 -> 17         0.10582
      11 -> 25         0.46165
      11 -> 26        -0.13743
      12 -> 24         0.46168

 Excited State  73:      Singlet-A     20.3111 eV   61.04 nm  f=0.0006  <S**2>=0.000
       6 -> 17         0.10571
      11 -> 24        -0.46117
      12 -> 25         0.46209
      12 -> 26         0.13770

 Excited State  74:      Singlet-A     20.7360 eV   59.79 nm  f=0.0073  <S**2>=0.000
       6 -> 17         0.15466
       9 -> 23         0.54706
      10 -> 23         0.14349
      12 -> 26         0.35239

 Excited State  75:      Singlet-A     20.7360 eV   59.79 nm  f=0.0074  <S**2>=0.000
       5 -> 17        -0.15468
       9 -> 23        -0.14348
      10 -> 23         0.54714
      11 -> 26         0.35227

 Excited State  76:      Singlet-A     21.0244 eV   58.97 nm  f=0.1114  <S**2>=0.000
       5 -> 18         0.48755
       6 -> 19         0.48774

 Excited State  77:      Singlet-A     21.2096 eV   58.46 nm  f=0.0000  <S**2>=0.000
       5 -> 18        -0.34016
       5 -> 19         0.35616
       6 -> 18         0.35660
       6 -> 19         0.33993

 Excited State  78:      Singlet-A     21.2096 eV   58.46 nm  f=0.0000  <S**2>=0.000
       5 -> 18         0.35640
       5 -> 19         0.33982
       6 -> 18         0.34027
       6 -> 19        -0.35636

 Excited State  79:      Singlet-A     21.4373 eV   57.84 nm  f=0.0000  <S**2>=0.000
       5 -> 19         0.49507
       6 -> 18        -0.49443

 Excited State  80:      Singlet-A     21.4562 eV   57.78 nm  f=0.0000  <S**2>=0.000
       5 -> 15        -0.11174
       6 -> 16         0.11187
       8 -> 22         0.28352
      11 -> 25        -0.41267
      12 -> 24         0.41272

 Excited State  81:      Singlet-A     21.5308 eV   57.58 nm  f=1.0041  <S**2>=0.000
       8 -> 21        -0.15418
       9 -> 23        -0.11239
      10 -> 23        -0.31657
      11 -> 26         0.47630
      11 -> 28         0.11675
      12 -> 26         0.25261
      12 -> 27         0.11673

 Excited State  82:      Singlet-A     21.5308 eV   57.58 nm  f=1.0042  <S**2>=0.000
       8 -> 20        -0.15419
       9 -> 23        -0.31670
      10 -> 23         0.11232
      11 -> 26        -0.25266
      11 -> 27         0.11676
      12 -> 26         0.47617
      12 -> 28        -0.11677

 Excited State  83:      Singlet-A     22.1611 eV   55.95 nm  f=0.0000  <S**2>=0.000
       9 -> 25         0.48425
       9 -> 28        -0.10027
      10 -> 24         0.48576
      10 -> 27        -0.10042

 Excited State  84:      Singlet-A     22.2331 eV   55.77 nm  f=0.0000  <S**2>=0.000
       9 -> 25         0.46602
       9 -> 26        -0.21441
      10 -> 24        -0.46444

 Excited State  85:      Singlet-A     22.2332 eV   55.77 nm  f=0.0000  <S**2>=0.000
       9 -> 24         0.46550
      10 -> 25         0.46486
      10 -> 26         0.21460

 Excited State  86:      Singlet-A     22.3053 eV   55.59 nm  f=0.0000  <S**2>=0.000
       5 -> 20         0.28057
       6 -> 21         0.28130
       8 -> 22         0.43542
      11 -> 28         0.23944
      12 -> 27        -0.23963

 Excited State  87:      Singlet-A     22.3329 eV   55.52 nm  f=0.0000  <S**2>=0.000
       5 -> 20         0.12096
       5 -> 21        -0.44678
       6 -> 20         0.44804
       6 -> 21         0.12107
      11 -> 27         0.15969
      12 -> 28         0.15950

 Excited State  88:      Singlet-A     22.3886 eV   55.38 nm  f=0.0118  <S**2>=0.000
       5 -> 20        -0.16191
       5 -> 21         0.46100
       6 -> 20         0.45991
       6 -> 21         0.16166

 Excited State  89:      Singlet-A     22.3886 eV   55.38 nm  f=0.0118  <S**2>=0.000
       5 -> 20         0.46064
       5 -> 21         0.16199
       6 -> 20         0.16159
       6 -> 21        -0.46027

 Excited State  90:      Singlet-A     22.3896 eV   55.38 nm  f=0.1938  <S**2>=0.000
       7 -> 22        -0.16998
       8 -> 23         0.29079
       9 -> 24        -0.42677
      10 -> 25         0.42740

 Excited State  91:      Singlet-A     22.7640 eV   54.46 nm  f=0.0000  <S**2>=0.000
       5 -> 21         0.16343
       6 -> 20        -0.16332
      11 -> 27         0.46245
      12 -> 28         0.46236

 Excited State  92:      Singlet-A     22.8619 eV   54.23 nm  f=0.0000  <S**2>=0.000
       5 -> 20         0.34808
       6 -> 21         0.34806
       7 -> 23        -0.23245
       8 -> 22        -0.24854
       8 -> 26        -0.10811
      11 -> 25        -0.11713
      11 -> 28        -0.18857
      12 -> 24         0.11711
      12 -> 27         0.18867

 Excited State  93:      Singlet-A     22.8901 eV   54.16 nm  f=0.0000  <S**2>=0.000
       9 -> 24        -0.15008
      10 -> 25        -0.15031
      10 -> 26         0.65847

 Excited State  94:      Singlet-A     22.8904 eV   54.16 nm  f=0.0000  <S**2>=0.000
       9 -> 25         0.15004
       9 -> 26         0.65853
      10 -> 24        -0.15008

 Excited State  95:      Singlet-A     23.1717 eV   53.51 nm  f=0.0001  <S**2>=0.000
       7 -> 22         0.52044
       8 -> 23        -0.33919
       9 -> 24        -0.22614
      10 -> 25         0.22609

 Excited State  96:      Singlet-A     23.2117 eV   53.41 nm  f=0.0000  <S**2>=0.000
       8 -> 22         0.37603
       9 -> 32        -0.11131
      10 -> 31        -0.11124
      11 -> 28        -0.36737
      12 -> 27         0.36769

 Excited State  97:      Singlet-A     23.6282 eV   52.47 nm  f=0.1435  <S**2>=0.000
      10 -> 23         0.13029
      11 -> 28         0.42779
      12 -> 27         0.42742
      12 -> 29        -0.23964

 Excited State  98:      Singlet-A     23.6282 eV   52.47 nm  f=0.1435  <S**2>=0.000
       9 -> 23        -0.13030
      11 -> 27        -0.42758
      11 -> 29        -0.23959
      12 -> 28         0.42765

 Excited State  99:      Singlet-A     23.7087 eV   52.29 nm  f=0.1150  <S**2>=0.000
       7 -> 22         0.39255
       8 -> 23         0.51968
      11 -> 33         0.14429
      12 -> 34        -0.14430

 Excited State 100:      Singlet-A     24.2854 eV   51.05 nm  f=0.0000  <S**2>=0.000
       4 -> 13        -0.13172
       5 -> 20         0.11373
       6 -> 21         0.11370
       7 -> 23         0.62808
       8 -> 26        -0.20547

 Excited State 101:      Singlet-A     24.7414 eV   50.11 nm  f=0.0123  <S**2>=0.000
       8 -> 24         0.32890
       8 -> 25         0.10492
      11 -> 27        -0.11941
      11 -> 29         0.46375
      12 -> 28         0.11944
      12 -> 29         0.19774
      12 -> 30        -0.18921

 Excited State 102:      Singlet-A     24.7414 eV   50.11 nm  f=0.0123  <S**2>=0.000
       8 -> 24        -0.10497
       8 -> 25         0.32878
      11 -> 28         0.11948
      11 -> 29        -0.19771
      11 -> 30         0.18914
      12 -> 27         0.11944
      12 -> 29         0.46382

 Excited State 103:      Singlet-A     24.7883 eV   50.02 nm  f=0.0000  <S**2>=0.000
       7 -> 25         0.20280
       9 -> 27         0.43500
       9 -> 29        -0.17679
      10 -> 28         0.43452

 Excited State 104:      Singlet-A     24.7884 eV   50.02 nm  f=0.0000  <S**2>=0.000
       7 -> 24        -0.20284
       9 -> 28        -0.43413
      10 -> 27         0.43537
      10 -> 29         0.17680

 Excited State 105:      Singlet-A     24.8103 eV   49.97 nm  f=0.0000  <S**2>=0.000
       4 -> 13         0.68511
       7 -> 23         0.12866

 Excited State 106:      Singlet-A     24.8191 eV   49.96 nm  f=0.0000  <S**2>=0.000
       4 -> 14         0.54179
       9 -> 27        -0.26505
      10 -> 28         0.26561
      11 -> 31        -0.10252
      11 -> 33        -0.12624
      12 -> 32        -0.10201
      12 -> 34         0.12618

 The electronic state is 1-A.
 Alpha  occ. eigenvalues --  -10.29711 -10.29695 -10.29695  -0.94421  -0.68127
 Alpha  occ. eigenvalues --   -0.68127  -0.58000  -0.55042  -0.44139  -0.44139
 Alpha  occ. eigenvalues --   -0.37787  -0.37786
 Alpha virt. eigenvalues --    0.15110   0.15725   0.19840   0.19841   0.22214
 Alpha virt. eigenvalues --    0.26748   0.26749   0.33455   0.33455   0.46347
 Alpha virt. eigenvalues --    0.49256   0.57403   0.57404   0.59180   0.67818

 Mulliken charges:
               1
     1  C   -0.118085
     2  C   -0.118087
     3  C   -0.118084
     4  H    0.059046
     5  H    0.059046
     6  H    0.059038
     7  H    0.059038
     8  H    0.059044
     9  H    0.059044
 Sum of Mulliken charges =   0.00000

 Dipole moment (field-independent basis, Debye):
    X=              0.0000    Y=              0.0001    Z=             -0.0000  Tot=              0.0001
 Quadrupole moment (field-independent basis, Debye-Ang):
   XX=            -20.5131   YY=            -20.5138   ZZ=            -18.2742
   XY=              0.0000   XZ=             -0.0000   YZ=              0.0000

 Normal termination of Gaussian 16 at Sat Aug 14 23:33:44 2021.
