 Gaussian 16, Revision C.01,
 Gaussian 16:  EM64L-G16RevC.01  3-Jul-2019

 ----------------------------------------------------------------------
 #P TD(Nstates=10000) wB97XD/def2SVP SCF(maxcycles=100) Int(Grid=ultraf
 ine)
 ----------------------------------------------------------------------

 ---------------------
 xGDB7_00001_tier4.com
 ---------------------
 Symbolic Z-matrix:
 Charge =  0 Multiplicity = 1

                         Standard orientation:
 ---------------------------------------------------------------------
 Center     Atomic      Atomic             Coordinates (Angstroms)
 Number     Number       Type             X           Y           Z
 ---------------------------------------------------------------------
      1          7           0        1.081654   -0.156603   -0.000004
      2          6           0       -0.163795    0.383354   -0.000002
      3          8           0       -1.192878   -0.245228    0.000001
      4          1           0        1.909188    0.421737    0.000012
      5          1           0        1.182484   -1.164225    0.000011
      6          1           0       -0.137454    1.500412    0.000006
 ---------------------------------------------------------------------

 SCF Done:  E(RwB97XD) =  -169.713285738     A.U. after   15 cycles

 Excitation energies and oscillator strengths:

 Excited State   1:      Singlet-A      5.8359 eV  212.45 nm  f=0.0017  <S**2>=0.000
      12 -> 13         0.70636
 This state for optimization and/or second-order correction.
 Total Energy, E(TD-HF/TD-DFT) =  -169.498820959
 Copying the excited state density for this state as the 1-particle RhoCI density.

 Excited State   2:      Singlet-A      8.0880 eV  153.29 nm  f=0.0589  <S**2>=0.000
      11 -> 13         0.55193
      12 -> 14        -0.42567

 Excited State   3:      Singlet-A      8.2574 eV  150.15 nm  f=0.0058  <S**2>=0.000
      10 -> 14        -0.10303
      11 -> 14         0.69797

 Excited State   4:      Singlet-A      9.0065 eV  137.66 nm  f=0.0008  <S**2>=0.000
      11 -> 15         0.69126
      11 -> 16        -0.11973

 Excited State   5:      Singlet-A      9.0292 eV  137.31 nm  f=0.1523  <S**2>=0.000
      12 -> 14         0.10149
      12 -> 15         0.69364

 Excited State   6:      Singlet-A      9.1965 eV  134.82 nm  f=0.3190  <S**2>=0.000
      11 -> 13         0.41923
      12 -> 14         0.54572

 Excited State   7:      Singlet-A     10.3647 eV  119.62 nm  f=0.0022  <S**2>=0.000
       9 -> 13         0.70362

 Excited State   8:      Singlet-A     10.6458 eV  116.46 nm  f=0.0002  <S**2>=0.000
      11 -> 15         0.12796
      11 -> 16         0.68037

 Excited State   9:      Singlet-A     10.6697 eV  116.20 nm  f=0.0052  <S**2>=0.000
      12 -> 16         0.69325

 Excited State  10:      Singlet-A     11.7087 eV  105.89 nm  f=0.0662  <S**2>=0.000
      10 -> 13         0.63045
      12 -> 17        -0.24455

 Excited State  11:      Singlet-A     12.1366 eV  102.16 nm  f=0.0799  <S**2>=0.000
       9 -> 14         0.12270
      10 -> 13         0.21485
      12 -> 17         0.64992

 Excited State  12:      Singlet-A     12.2967 eV  100.83 nm  f=0.0222  <S**2>=0.000
       8 -> 13         0.64071
      10 -> 14        -0.22197
      10 -> 15         0.13674

 Excited State  13:      Singlet-A     12.3690 eV  100.24 nm  f=0.0093  <S**2>=0.000
       8 -> 13         0.24114
      10 -> 14         0.60275
      11 -> 17        -0.23926

 Excited State  14:      Singlet-A     12.7662 eV   97.12 nm  f=0.0057  <S**2>=0.000
      10 -> 14         0.24840
      10 -> 15         0.17095
      11 -> 17         0.63282

 Excited State  15:      Singlet-A     12.8423 eV   96.54 nm  f=0.0655  <S**2>=0.000
       8 -> 14        -0.10659
       9 -> 14         0.66641
      10 -> 13        -0.11687

 Excited State  16:      Singlet-A     12.9742 eV   95.56 nm  f=0.0068  <S**2>=0.000
       8 -> 13        -0.12473
      10 -> 15         0.66055
      11 -> 17        -0.17897

 Excited State  17:      Singlet-A     13.3484 eV   92.88 nm  f=0.1211  <S**2>=0.000
       9 -> 15         0.69624

 Excited State  18:      Singlet-A     14.2362 eV   87.09 nm  f=0.0668  <S**2>=0.000
       8 -> 14         0.66811
       9 -> 14         0.12327

 Excited State  19:      Singlet-A     14.5959 eV   84.94 nm  f=0.0014  <S**2>=0.000
       7 -> 13        -0.23941
      10 -> 16         0.64863

 Excited State  20:      Singlet-A     14.6919 eV   84.39 nm  f=0.0002  <S**2>=0.000
       7 -> 13         0.65525
      10 -> 16         0.24307

 Excited State  21:      Singlet-A     14.8767 eV   83.34 nm  f=0.3420  <S**2>=0.000
       8 -> 15         0.69552

 Excited State  22:      Singlet-A     14.9706 eV   82.82 nm  f=0.0110  <S**2>=0.000
      11 -> 18         0.69594

 Excited State  23:      Singlet-A     14.9964 eV   82.68 nm  f=0.0054  <S**2>=0.000
       9 -> 16         0.56307
       9 -> 17        -0.12534
      12 -> 18        -0.37807

 Excited State  24:      Singlet-A     15.3500 eV   80.77 nm  f=0.2718  <S**2>=0.000
       8 -> 16        -0.14451
       9 -> 16         0.38055
      12 -> 18         0.54733

 Excited State  25:      Singlet-A     16.0481 eV   77.26 nm  f=0.1634  <S**2>=0.000
       7 -> 14         0.65575
       7 -> 15         0.14806
       8 -> 16        -0.16623

 Excited State  26:      Singlet-A     16.3465 eV   75.85 nm  f=0.0551  <S**2>=0.000
       6 -> 13        -0.31514
      10 -> 17         0.62352

 Excited State  27:      Singlet-A     16.5041 eV   75.12 nm  f=0.1170  <S**2>=0.000
       7 -> 14         0.12760
       8 -> 16         0.34747
       9 -> 17         0.57817

 Excited State  28:      Singlet-A     16.7991 eV   73.80 nm  f=0.0689  <S**2>=0.000
       7 -> 15         0.20568
       8 -> 16         0.52324
       9 -> 17        -0.32660
      12 -> 18         0.10764
      12 -> 19         0.18151

 Excited State  29:      Singlet-A     17.0360 eV   72.78 nm  f=0.1498  <S**2>=0.000
       6 -> 13         0.58705
      10 -> 17         0.28614
      10 -> 18        -0.14699
      11 -> 19         0.20606

 Excited State  30:      Singlet-A     17.1304 eV   72.38 nm  f=0.0212  <S**2>=0.000
       7 -> 14        -0.16187
       7 -> 15         0.62969
       9 -> 17         0.10242
      12 -> 19        -0.12633

 Excited State  31:      Singlet-A     17.7072 eV   70.02 nm  f=0.0277  <S**2>=0.000
       6 -> 13        -0.12793
      10 -> 17        -0.12699
      10 -> 18         0.11387
      11 -> 19         0.65826

 Excited State  32:      Singlet-A     17.7143 eV   69.99 nm  f=0.1955  <S**2>=0.000
       6 -> 14         0.17433
       8 -> 16        -0.10116
       8 -> 17         0.13165
      12 -> 19         0.62543

 Excited State  33:      Singlet-A     18.0770 eV   68.59 nm  f=0.0119  <S**2>=0.000
       6 -> 14         0.63915
       6 -> 15        -0.12531
       8 -> 16         0.10352
       8 -> 17        -0.15803
      12 -> 19        -0.10578

 Excited State  34:      Singlet-A     18.4824 eV   67.08 nm  f=0.0808  <S**2>=0.000
       6 -> 15        -0.26515
       7 -> 16         0.61654
       8 -> 17        -0.13558

 Excited State  35:      Singlet-A     18.5802 eV   66.73 nm  f=0.1131  <S**2>=0.000
       6 -> 14         0.11827
       7 -> 16         0.11348
       8 -> 17         0.64223
      12 -> 19        -0.14230

 Excited State  36:      Singlet-A     18.7676 eV   66.06 nm  f=0.0175  <S**2>=0.000
      12 -> 20         0.70127

 Excited State  37:      Singlet-A     18.8380 eV   65.82 nm  f=0.2502  <S**2>=0.000
       6 -> 13         0.15575
      10 -> 18         0.66177

 Excited State  38:      Singlet-A     19.0586 eV   65.05 nm  f=0.0354  <S**2>=0.000
       6 -> 14         0.10562
       6 -> 15         0.54856
       7 -> 16         0.23815
       9 -> 18        -0.29757
      11 -> 20         0.11011

 Excited State  39:      Singlet-A     19.1382 eV   64.78 nm  f=0.0378  <S**2>=0.000
       6 -> 15         0.27864
       7 -> 16         0.10150
       9 -> 18         0.62702

 Excited State  40:      Singlet-A     19.4202 eV   63.84 nm  f=0.0263  <S**2>=0.000
      11 -> 20         0.68776

 Excited State  41:      Singlet-A     20.3162 eV   61.03 nm  f=0.0000  <S**2>=0.000
      10 -> 18        -0.11799
      11 -> 21         0.68002

 Excited State  42:      Singlet-A     20.3596 eV   60.90 nm  f=0.0763  <S**2>=0.000
       6 -> 16         0.64926
       8 -> 18        -0.20723

 Excited State  43:      Singlet-A     20.6691 eV   59.99 nm  f=0.1090  <S**2>=0.000
      12 -> 21         0.63229
      12 -> 22        -0.15421
      12 -> 23        -0.12201

 Excited State  44:      Singlet-A     20.9665 eV   59.13 nm  f=0.0113  <S**2>=0.000
       7 -> 17         0.58217
       8 -> 18         0.35297
      12 -> 21         0.10784

 Excited State  45:      Singlet-A     20.9899 eV   59.07 nm  f=0.0095  <S**2>=0.000
      10 -> 19        -0.44070
      11 -> 22         0.53928

 Excited State  46:      Singlet-A     21.2187 eV   58.43 nm  f=0.0462  <S**2>=0.000
       6 -> 16         0.11529
       7 -> 17        -0.22982
       8 -> 18         0.24793
      12 -> 21         0.19079
      12 -> 22         0.56431

 Excited State  47:      Singlet-A     21.4954 eV   57.68 nm  f=0.2286  <S**2>=0.000
      10 -> 19         0.53351
      11 -> 22         0.43048

 Excited State  48:      Singlet-A     21.5210 eV   57.61 nm  f=0.0744  <S**2>=0.000
       6 -> 16         0.12871
       7 -> 17        -0.27963
       8 -> 18         0.46517
       9 -> 19         0.15318
      12 -> 22        -0.36503

 Excited State  49:      Singlet-A     21.9941 eV   56.37 nm  f=0.1541  <S**2>=0.000
       6 -> 17         0.10434
       8 -> 18        -0.12701
       8 -> 19        -0.12547
       9 -> 19         0.63589
      12 -> 24         0.13644

 Excited State  50:      Singlet-A     22.6603 eV   54.71 nm  f=0.0011  <S**2>=0.000
       6 -> 17        -0.42027
      12 -> 23         0.51779
      12 -> 24        -0.12420

 Excited State  51:      Singlet-A     22.8965 eV   54.15 nm  f=0.0182  <S**2>=0.000
       6 -> 17         0.45667
       7 -> 18         0.26765
       8 -> 19        -0.23223
      12 -> 23         0.36920

 Excited State  52:      Singlet-A     23.0072 eV   53.89 nm  f=0.0886  <S**2>=0.000
       7 -> 18         0.39718
       8 -> 19         0.24723
       9 -> 19         0.10453
      10 -> 20         0.47022

 Excited State  53:      Singlet-A     23.0952 eV   53.68 nm  f=0.0392  <S**2>=0.000
       6 -> 17        -0.23737
       7 -> 18         0.47549
       8 -> 19        -0.17637
      10 -> 20        -0.33231
      12 -> 23        -0.17220

 Excited State  54:      Singlet-A     23.1017 eV   53.67 nm  f=0.0549  <S**2>=0.000
       9 -> 20         0.69804

 Excited State  55:      Singlet-A     23.4360 eV   52.90 nm  f=0.0103  <S**2>=0.000
      10 -> 21        -0.12000
      11 -> 23         0.68710

 Excited State  56:      Singlet-A     23.6223 eV   52.49 nm  f=0.1524  <S**2>=0.000
       7 -> 18        -0.10748
       8 -> 19        -0.17038
       9 -> 19        -0.10312
       9 -> 21        -0.11794
      10 -> 20         0.11550
      12 -> 23         0.10753
      12 -> 24         0.61732

 Excited State  57:      Singlet-A     23.8998 eV   51.88 nm  f=0.1551  <S**2>=0.000
       6 -> 17         0.11079
       7 -> 19         0.11398
       8 -> 19         0.52149
      10 -> 20        -0.30123
      12 -> 23         0.15881
      12 -> 24         0.20601

 Excited State  58:      Singlet-A     24.0088 eV   51.64 nm  f=0.0391  <S**2>=0.000
      10 -> 21         0.59547
      10 -> 22        -0.24518
      11 -> 23         0.12998
      11 -> 24         0.18559
      11 -> 25         0.11061

 Excited State  59:      Singlet-A     24.3279 eV   50.96 nm  f=0.0108  <S**2>=0.000
       5 -> 13         0.35070
       8 -> 20         0.15619
      10 -> 21        -0.21153
      11 -> 24         0.53457

 Excited State  60:      Singlet-A     24.4312 eV   50.75 nm  f=0.0201  <S**2>=0.000
       5 -> 13         0.54234
       8 -> 20         0.10643
      10 -> 22        -0.15295
      11 -> 24        -0.39290

 Excited State  61:      Singlet-A     24.6929 eV   50.21 nm  f=0.1052  <S**2>=0.000
       6 -> 18         0.30355
       9 -> 21         0.53167
       9 -> 22        -0.27291
      12 -> 24         0.11188

 Excited State  62:      Singlet-A     24.7336 eV   50.13 nm  f=0.0168  <S**2>=0.000
       5 -> 13        -0.14001
       8 -> 20         0.66279
      10 -> 21         0.12160

 Excited State  63:      Singlet-A     24.7967 eV   50.00 nm  f=0.0161  <S**2>=0.000
       6 -> 18         0.60162
       9 -> 21        -0.30032
       9 -> 22         0.10156
      11 -> 26         0.10397

 Excited State  64:      Singlet-A     25.1975 eV   49.20 nm  f=0.0085  <S**2>=0.000
       5 -> 13         0.18675
      10 -> 21         0.21940
      10 -> 22         0.63200

 Excited State  65:      Singlet-A     25.5102 eV   48.60 nm  f=0.0074  <S**2>=0.000
       5 -> 14         0.64177
       7 -> 19        -0.13411
      11 -> 26        -0.16464

 Excited State  66:      Singlet-A     25.6910 eV   48.26 nm  f=0.0743  <S**2>=0.000
       5 -> 14        -0.13532
       7 -> 19        -0.35772
       8 -> 21        -0.24868
       9 -> 21         0.22372
       9 -> 22         0.43463

 Excited State  67:      Singlet-A     25.7766 eV   48.10 nm  f=0.0545  <S**2>=0.000
       5 -> 15        -0.12252
       6 -> 19        -0.14959
       7 -> 19         0.46275
       9 -> 21         0.19179
       9 -> 22         0.41559

 Excited State  68:      Singlet-A     26.1207 eV   47.47 nm  f=0.0093  <S**2>=0.000
      10 -> 25        -0.11820
      11 -> 25         0.68212

 Excited State  69:      Singlet-A     26.2874 eV   47.16 nm  f=0.0307  <S**2>=0.000
       5 -> 14        -0.10594
       5 -> 15         0.29641
       6 -> 19         0.14125
       8 -> 21         0.50723
       9 -> 22         0.14627
      12 -> 25         0.25970

 Excited State  70:      Singlet-A     26.5917 eV   46.63 nm  f=0.0116  <S**2>=0.000
       5 -> 15         0.57938
       6 -> 19        -0.18738
       7 -> 19         0.16361
       8 -> 21        -0.27220

 Excited State  71:      Singlet-A     26.7319 eV   46.38 nm  f=0.0005  <S**2>=0.000
       5 -> 15        -0.14068
       8 -> 21        -0.20794
       9 -> 23        -0.20482
      12 -> 25         0.59016

 Excited State  72:      Singlet-A     26.7720 eV   46.31 nm  f=0.0142  <S**2>=0.000
       4 -> 13         0.13687
      10 -> 23         0.67139

 Excited State  73:      Singlet-A     26.9894 eV   45.94 nm  f=0.0021  <S**2>=0.000
      12 -> 26         0.68657

 Excited State  74:      Singlet-A     27.2570 eV   45.49 nm  f=0.0006  <S**2>=0.000
       6 -> 19         0.14965
       8 -> 22        -0.34074
       9 -> 23         0.51710
      12 -> 25         0.22206

 Excited State  75:      Singlet-A     27.3336 eV   45.36 nm  f=0.0065  <S**2>=0.000
       4 -> 13         0.23252
       7 -> 20         0.63659
      10 -> 24        -0.14261

 Excited State  76:      Singlet-A     27.3803 eV   45.28 nm  f=0.0026  <S**2>=0.000
       4 -> 13         0.49550
       7 -> 20        -0.25498
      10 -> 23        -0.13180
      10 -> 24        -0.37180
      12 -> 26         0.11906

 Excited State  77:      Singlet-A     27.3854 eV   45.27 nm  f=0.1650  <S**2>=0.000
       6 -> 19        -0.24001
       7 -> 21        -0.21067
       8 -> 22         0.36323
       9 -> 23         0.38360
      11 -> 26         0.25870

 Excited State  78:      Singlet-A     27.5795 eV   44.96 nm  f=0.2298  <S**2>=0.000
       5 -> 16        -0.12059
       6 -> 19        -0.17547
       8 -> 22        -0.40538
       9 -> 23        -0.11591
       9 -> 24        -0.14378
      11 -> 26         0.40905
      12 -> 27        -0.12919

 Excited State  79:      Singlet-A     27.8630 eV   44.50 nm  f=0.0617  <S**2>=0.000
       4 -> 13         0.20393
      10 -> 24         0.32747
      10 -> 27        -0.11278
      11 -> 27         0.56969

 Excited State  80:      Singlet-A     27.9777 eV   44.32 nm  f=0.0256  <S**2>=0.000
       4 -> 13         0.34189
       6 -> 20         0.10499
      10 -> 23        -0.10469
      10 -> 24         0.45402
      11 -> 27        -0.36893

 Excited State  81:      Singlet-A     28.0222 eV   44.24 nm  f=0.2556  <S**2>=0.000
       5 -> 16         0.50478
       6 -> 19        -0.31916
       7 -> 19        -0.13837
       8 -> 22        -0.12904
       9 -> 24        -0.19532
      11 -> 26        -0.13266

 Excited State  82:      Singlet-A     28.2695 eV   43.86 nm  f=0.1270  <S**2>=0.000
       5 -> 15         0.10694
       5 -> 16         0.43361
       6 -> 19         0.27789
       7 -> 21         0.11877
       9 -> 24         0.13829
      11 -> 26         0.21932
      12 -> 27        -0.29590

 Excited State  83:      Singlet-A     28.8102 eV   43.03 nm  f=0.1560  <S**2>=0.000
       6 -> 19         0.18614
       7 -> 21        -0.13518
       7 -> 22         0.32505
       8 -> 23        -0.13366
      11 -> 26         0.13890
      12 -> 27         0.48583

 Excited State  84:      Singlet-A     28.8496 eV   42.98 nm  f=0.0203  <S**2>=0.000
       7 -> 21        -0.24367
       7 -> 22         0.43814
      12 -> 27        -0.23353
      12 -> 28        -0.38979

 Excited State  85:      Singlet-A     28.9032 eV   42.90 nm  f=0.0096  <S**2>=0.000
       6 -> 20         0.68795

 Excited State  86:      Singlet-A     28.9305 eV   42.86 nm  f=0.0470  <S**2>=0.000
       5 -> 17         0.10069
       6 -> 21        -0.10187
       7 -> 21         0.10831
       7 -> 22         0.12828
       8 -> 23         0.50311
       9 -> 24         0.32095
      12 -> 27         0.13722
      12 -> 28         0.12449

 Excited State  87:      Singlet-A     29.1661 eV   42.51 nm  f=0.2156  <S**2>=0.000
       7 -> 21         0.16837
       7 -> 22         0.35437
       8 -> 23        -0.13065
      12 -> 27        -0.22312
      12 -> 28         0.44655

 Excited State  88:      Singlet-A     29.3212 eV   42.28 nm  f=0.5851  <S**2>=0.000
       7 -> 21         0.52165
       7 -> 22         0.10864
       8 -> 22         0.12894
       9 -> 24        -0.19761
      12 -> 28        -0.28851

 Excited State  89:      Singlet-A     29.7892 eV   41.62 nm  f=0.0341  <S**2>=0.000
       4 -> 14        -0.37781
       8 -> 23         0.20740
       8 -> 24         0.47860

 Excited State  90:      Singlet-A     29.8664 eV   41.51 nm  f=0.0026  <S**2>=0.000
       4 -> 14         0.53697
       6 -> 21        -0.13164
       8 -> 23         0.10276
       8 -> 24         0.34534
       9 -> 24        -0.14564

 Excited State  91:      Singlet-A     30.0102 eV   41.31 nm  f=0.0410  <S**2>=0.000
      10 -> 25        -0.34975
      10 -> 28         0.10840
      11 -> 28         0.59038

 Excited State  92:      Singlet-A     30.1504 eV   41.12 nm  f=0.0065  <S**2>=0.000
       4 -> 15         0.65824
       6 -> 21        -0.12404

 Excited State  93:      Singlet-A     30.2325 eV   41.01 nm  f=0.0354  <S**2>=0.000
       4 -> 14         0.15810
       6 -> 21         0.62445
       6 -> 22         0.13620

 Excited State  94:      Singlet-A     30.5385 eV   40.60 nm  f=0.0273  <S**2>=0.000
      10 -> 25         0.59646
      11 -> 28         0.35136

 Excited State  95:      Singlet-A     30.5452 eV   40.59 nm  f=0.0211  <S**2>=0.000
       5 -> 17         0.57846
       8 -> 23        -0.15229
       8 -> 24         0.20221
       9 -> 24         0.10641
      10 -> 26        -0.18466

 Excited State  96:      Singlet-A     30.7951 eV   40.26 nm  f=0.0155  <S**2>=0.000
       5 -> 17        -0.13358
       6 -> 19        -0.11925
       6 -> 22        -0.33387
       7 -> 23        -0.17770
       8 -> 23        -0.18364
       8 -> 24         0.17596
       9 -> 24         0.19495
       9 -> 25         0.19039
      10 -> 26         0.33432

 Excited State  97:      Singlet-A     30.8754 eV   40.16 nm  f=0.0728  <S**2>=0.000
       5 -> 17         0.32024
       6 -> 22         0.19709
       8 -> 24        -0.10784
       8 -> 25        -0.10598
       9 -> 24        -0.15093
       9 -> 25         0.18091
      10 -> 26         0.47478

 Excited State  98:      Singlet-A     31.1202 eV   39.84 nm  f=0.0081  <S**2>=0.000
       7 -> 26        -0.14304
       8 -> 26        -0.22438
       9 -> 26         0.65200

 Excited State  99:      Singlet-A     31.1877 eV   39.75 nm  f=0.0396  <S**2>=0.000
       6 -> 22        -0.18358
       9 -> 25         0.56576
      10 -> 26        -0.23198

 Excited State 100:      Singlet-A     31.3418 eV   39.56 nm  f=0.0771  <S**2>=0.000
       6 -> 21         0.10860
       6 -> 22        -0.37954
       7 -> 23         0.48452
       8 -> 23         0.12001
       9 -> 25        -0.16747
      10 -> 26         0.10793

 Excited State 101:      Singlet-A     31.7010 eV   39.11 nm  f=0.0161  <S**2>=0.000
       4 -> 16         0.35120
       6 -> 22         0.24965
       6 -> 23         0.14200
       7 -> 23         0.38325
       8 -> 25         0.11253
       9 -> 24         0.13567
       9 -> 25         0.10574
      12 -> 29         0.20615

 Excited State 102:      Singlet-A     32.0763 eV   38.65 nm  f=0.0216  <S**2>=0.000
       4 -> 16         0.57191
       5 -> 18         0.10680
       6 -> 23        -0.12319
       7 -> 23        -0.15121
       8 -> 25        -0.14462
       9 -> 24        -0.10152
      12 -> 29        -0.20186

 Excited State 103:      Singlet-A     32.2667 eV   38.42 nm  f=0.0044  <S**2>=0.000
       6 -> 26        -0.13584
       8 -> 26         0.61711
       9 -> 26         0.22624
      11 -> 29         0.17859

 Excited State 104:      Singlet-A     32.3406 eV   38.34 nm  f=0.0070  <S**2>=0.000
       5 -> 18        -0.11504
       6 -> 23        -0.10766
       7 -> 24         0.11585
       8 -> 25        -0.42260
      12 -> 29         0.48792

 Excited State 105:      Singlet-A     32.4439 eV   38.21 nm  f=0.0421  <S**2>=0.000
       5 -> 18         0.41763
       6 -> 23         0.19191
       7 -> 24        -0.25872
       8 -> 25        -0.37478
      12 -> 29        -0.11277

 Excited State 106:      Singlet-A     32.4599 eV   38.20 nm  f=0.2010  <S**2>=0.000
       8 -> 26        -0.16683
      10 -> 27        -0.35839
      10 -> 28        -0.11368
      11 -> 29         0.56430

 Excited State 107:      Singlet-A     32.4687 eV   38.19 nm  f=0.0223  <S**2>=0.000

 The electronic state is 1-A.
 Alpha  occ. eigenvalues --  -19.22249 -14.47434 -10.40040  -1.12762  -0.99948
 Alpha  occ. eigenvalues --   -0.71334  -0.64687  -0.56632  -0.49875  -0.49758
 Alpha  occ. eigenvalues --   -0.35899  -0.34119
 Alpha virt. eigenvalues --    0.10693   0.13386   0.16188   0.22025   0.31646
 Alpha virt. eigenvalues --    0.40327   0.51314   0.56739   0.59345   0.61645
 Alpha virt. eigenvalues --    0.69985   0.76225   0.82054   0.84004   0.88789

 Mulliken charges:
               1
     1  N   -0.189714
     2  C    0.171342
     3  O   -0.283837
     4  H    0.146548
     5  H    0.150490
     6  H    0.005170
 Sum of Mulliken charges =  -0.00000

 Dipole moment (field-independent basis, Debye):
    X=              3.8302    Y=              0.7862    Z=              0.0000  Tot=              3.9100
 Quadrupole moment (field-independent basis, Debye-Ang):
   XX=            -17.3840   YY=            -15.0896   ZZ=            -18.2589
   XY=             -1.1397   XZ=              0.0001   YZ=             -0.0000

 Normal termination of Gaussian 16 at Sat Aug 14 23:28:10 2021.
