 Gaussian 16, Revision C.01,
 Gaussian 16:  EM64L-G16RevC.01  3-Jul-2019

 ----------------------------------------------------------------------
 #P TD(Nstates=10000) wB97XD/def2SVP SCF(maxcycles=100) Int(Grid=ultraf
 ine)
 ----------------------------------------------------------------------

 ---------------------
 xGDB7_00001_tier4.com
 ---------------------
 Symbolic Z-matrix:
 Charge =  0 Multiplicity = 1

                         Standard orientation:
 ---------------------------------------------------------------------
 Center     Atomic      Atomic             Coordinates (Angstroms)
 Number     Number       Type             X           Y           Z
 ---------------------------------------------------------------------
      1          6           0        0.000000    0.000000    0.603394
      2          6           0        0.000000    0.000000   -0.603394
      3          1           0        0.000000    0.000000    1.677978
      4          1           0        0.000000    0.000000   -1.677978
 ---------------------------------------------------------------------

 SCF Done:  E(RwB97XD) =  -77.2389997052     A.U. after   11 cycles

 Excitation energies and oscillator strengths:

 Excited state symmetry could not be determined.
 Excited State   1:      Singlet-?Sym    6.8280 eV  181.58 nm  f=0.0000  <S**2>=0.000
       6 ->  8        -0.49987
       7 ->  9         0.49987
 This state for optimization and/or second-order correction.
 Total Energy, E(TD-HF/TD-DFT) =  -76.9880756500
 Copying the excited state density for this state as the 1-particle RhoCI density.

 Excited state symmetry could not be determined.
 Excited State   2:      Singlet-?Sym    7.1238 eV  174.04 nm  f=0.0000  <S**2>=0.000
       6 ->  8         0.49975
       7 ->  9         0.49975

 Excited state symmetry could not be determined.
 Excited State   3:      Singlet-?Sym    7.1238 eV  174.04 nm  f=0.0000  <S**2>=0.000
       6 ->  9        -0.49975
       7 ->  8         0.49975

 Excited state symmetry could not be determined.
 Excited State   4:      Singlet-?Sym    9.7280 eV  127.45 nm  f=0.0000  <S**2>=0.000
       6 -> 10         0.64640
       7 -> 10         0.27786

 Excited state symmetry could not be determined.
 Excited State   5:      Singlet-?Sym    9.7280 eV  127.45 nm  f=0.0000  <S**2>=0.000
       6 -> 10        -0.27786
       7 -> 10         0.64640

 Excited state symmetry could not be determined.
 Excited State   6:      Singlet-?Sym   10.3871 eV  119.36 nm  f=0.0028  <S**2>=0.000
       7 -> 11         0.69745

 Excited state symmetry could not be determined.
 Excited State   7:      Singlet-?Sym   10.3871 eV  119.36 nm  f=0.0028  <S**2>=0.000
       6 -> 11         0.69745

 Excited state symmetry could not be determined.
 Excited State   8:      Singlet-?Sym   11.3065 eV  109.66 nm  f=1.0050  <S**2>=0.000
       5 -> 12         0.10434
       6 ->  9         0.49475
       7 ->  8         0.49475
       6 <-  9        -0.10107
       7 <-  8        -0.10107

 Excited state symmetry could not be determined.
 Excited State   9:      Singlet-?Sym   12.8722 eV   96.32 nm  f=0.0000  <S**2>=0.000
       5 ->  8         0.69150

 Excited state symmetry could not be determined.
 Excited State  10:      Singlet-?Sym   12.8722 eV   96.32 nm  f=0.0000  <S**2>=0.000
       5 ->  9         0.69150

 Excited state symmetry could not be determined.
 Excited State  11:      Singlet-?Sym   14.2101 eV   87.25 nm  f=0.0000  <S**2>=0.000
       6 -> 12         0.31078
       7 -> 12         0.62688

 Excited state symmetry could not be determined.
 Excited State  12:      Singlet-?Sym   14.2101 eV   87.25 nm  f=0.0000  <S**2>=0.000
       6 -> 12         0.62688
       7 -> 12        -0.31078

 Excited state symmetry could not be determined.
 Excited State  13:      Singlet-?Sym   14.3422 eV   86.45 nm  f=0.2292  <S**2>=0.000
       4 ->  8         0.10665
       4 ->  9         0.13850
       6 -> 13         0.54152
       7 -> 13         0.41701

 Excited state symmetry could not be determined.
 Excited State  14:      Singlet-?Sym   14.3422 eV   86.45 nm  f=0.2292  <S**2>=0.000
       4 ->  8         0.13850
       4 ->  9        -0.10665
       6 -> 13        -0.41701
       7 -> 13         0.54152

 Excited State  15:      Singlet-SGU   15.2196 eV   81.46 nm  f=0.7767  <S**2>=0.000
       4 -> 11         0.16405
       5 -> 10         0.68546

 Excited state symmetry could not be determined.
 Excited State  16:      Singlet-?Sym   16.0471 eV   77.26 nm  f=0.4849  <S**2>=0.000
       4 ->  8         0.65905
       4 ->  9         0.17641
       7 -> 13        -0.17101

 Excited state symmetry could not be determined.
 Excited State  17:      Singlet-?Sym   16.0471 eV   77.26 nm  f=0.4849  <S**2>=0.000
       4 ->  8        -0.17641
       4 ->  9         0.65905
       6 -> 13        -0.17101

 Excited State  18:      Singlet-SGG   16.1245 eV   76.89 nm  f=0.0000  <S**2>=0.000
       4 -> 10         0.23342
       5 -> 11         0.63369
       6 -> 14         0.14586
       7 -> 15         0.14586

 Excited State  19:      Singlet-SGG   17.7386 eV   69.90 nm  f=0.0000  <S**2>=0.000
       4 -> 10         0.64782
       5 -> 11        -0.26076

 Excited State  20:      Singlet-SGU   18.3629 eV   67.52 nm  f=0.0669  <S**2>=0.000
       4 -> 11         0.67157
       5 -> 10        -0.16395

 Excited state symmetry could not be determined.
 Excited State  21:      Singlet-?Sym   18.9443 eV   65.45 nm  f=0.0000  <S**2>=0.000
       6 -> 14        -0.50003
       7 -> 15         0.50003

 Excited state symmetry could not be determined.
 Excited State  22:      Singlet-?Sym   18.9443 eV   65.45 nm  f=0.0000  <S**2>=0.000
       6 -> 15         0.50003
       7 -> 14         0.50003

 Excited state symmetry could not be determined.
 Excited State  23:      Singlet-?Sym   19.1924 eV   64.60 nm  f=0.0000  <S**2>=0.000
       6 -> 15        -0.50001
       7 -> 14         0.50001

 Excited state symmetry could not be determined.
 Excited State  24:      Singlet-?Sym   20.2109 eV   61.35 nm  f=0.0000  <S**2>=0.000
       3 ->  8         0.22055
       3 ->  9         0.66289

 Excited state symmetry could not be determined.
 Excited State  25:      Singlet-?Sym   20.2109 eV   61.35 nm  f=0.0000  <S**2>=0.000
       3 ->  8         0.66289
       3 ->  9        -0.22055

 Excited State  26:      Singlet-SGG   20.4249 eV   60.70 nm  f=0.0000  <S**2>=0.000
       5 -> 13         0.67134
       6 -> 14         0.14389
       7 -> 15         0.14389

 Excited State  27:      Singlet-SGU   20.8734 eV   59.40 nm  f=0.4443  <S**2>=0.000
       4 -> 13         0.11984
       5 -> 12         0.67969

 Excited State  28:      Singlet-SGG   22.2472 eV   55.73 nm  f=0.0000  <S**2>=0.000
       3 -> 11         0.24065
       3 -> 13         0.11452
       4 -> 10         0.10145
       4 -> 12         0.36548
       5 -> 11         0.10015
       5 -> 13         0.14063
       5 -> 18        -0.12240
       6 -> 14        -0.34411
       7 -> 15        -0.34411

 Excited State  29:      Singlet-SGU   22.2586 eV   55.70 nm  f=0.0242  <S**2>=0.000
       3 -> 10         0.64472
       6 -> 16        -0.17728
       7 -> 17        -0.17728

 Excited state symmetry could not be determined.
 Excited State  30:      Singlet-?Sym   22.3098 eV   55.57 nm  f=0.0000  <S**2>=0.000
       6 -> 16         0.49964
       7 -> 17        -0.49964

 Excited state symmetry could not be determined.
 Excited State  31:      Singlet-?Sym   22.3098 eV   55.57 nm  f=0.0000  <S**2>=0.000
       6 -> 17         0.49964
       7 -> 16         0.49964

 Excited State  32:      Singlet-SGU   22.5150 eV   55.07 nm  f=0.1094  <S**2>=0.000
       3 -> 10         0.13145
       4 -> 13         0.67326

 Excited state symmetry could not be determined.
 Excited State  33:      Singlet-?Sym   22.6004 eV   54.86 nm  f=0.0000  <S**2>=0.000
       6 -> 17        -0.49932
       7 -> 16         0.49932

 Excited State  34:      Singlet-SGG   22.7489 eV   54.50 nm  f=0.0000  <S**2>=0.000
       3 -> 11        -0.18992
       4 -> 12         0.60075
       6 -> 14         0.18093
       7 -> 15         0.18093

 Excited State  35:      Singlet-SGG   23.3855 eV   53.02 nm  f=0.0000  <S**2>=0.000
       3 -> 11         0.63305
       5 -> 13        -0.11163
       6 -> 14         0.17264
       7 -> 15         0.17264

 Excited state symmetry could not be determined.
 Excited State  36:      Singlet-?Sym   23.4000 eV   52.98 nm  f=0.0107  <S**2>=0.000
       7 -> 18         0.70393

 Excited state symmetry could not be determined.
 Excited State  37:      Singlet-?Sym   23.4000 eV   52.98 nm  f=0.0107  <S**2>=0.000
       6 -> 18         0.70393

 Excited state symmetry could not be determined.
 Excited State  38:      Singlet-?Sym   24.5033 eV   50.60 nm  f=0.0000  <S**2>=0.000
       6 -> 19         0.57368
       7 -> 19         0.40788

 Excited state symmetry could not be determined.
 Excited State  39:      Singlet-?Sym   24.5033 eV   50.60 nm  f=0.0000  <S**2>=0.000
       6 -> 19        -0.40788
       7 -> 19         0.57368

 Excited state symmetry could not be determined.
 Excited State  40:      Singlet-?Sym   24.9510 eV   49.69 nm  f=0.0820  <S**2>=0.000
       5 -> 14         0.43205
       5 -> 15         0.54763

 Excited state symmetry could not be determined.
 Excited State  41:      Singlet-?Sym   24.9510 eV   49.69 nm  f=0.0820  <S**2>=0.000
       5 -> 14         0.54763
       5 -> 15        -0.43205

 Excited state symmetry could not be determined.
 Excited State  42:      Singlet-?Sym   24.9933 eV   49.61 nm  f=0.0234  <S**2>=0.000
       3 -> 10         0.23447
       3 -> 12         0.29328
       4 -> 13        -0.10744
       4 -> 18        -0.10480
       5 -> 12         0.13763
       5 -> 21         0.10188
       6 -> 16         0.38023
       7 -> 17         0.38023

 Excited state symmetry could not be determined.
 Excited State  43:      Singlet-?Sym   26.7304 eV   46.38 nm  f=0.0000  <S**2>=0.000
       4 -> 14         0.61018
       4 -> 15        -0.16864
       5 -> 16        -0.30174

 Excited state symmetry could not be determined.
 Excited State  44:      Singlet-?Sym   26.7304 eV   46.38 nm  f=0.0000  <S**2>=0.000
       4 -> 14         0.16864
       4 -> 15         0.61018
       5 -> 17        -0.30174

 Excited State  45:      Singlet-SGU   27.4424 eV   45.18 nm  f=0.0782  <S**2>=0.000
       3 -> 12         0.62987
       4 -> 18         0.11862
       6 -> 16        -0.18261
       7 -> 17        -0.18261

 Excited State  46:      Singlet-SGG   27.5489 eV   45.01 nm  f=0.0000  <S**2>=0.000
       3 -> 13         0.64905
       5 -> 18         0.24915

 Excited state symmetry could not be determined.
 Excited State  47:      Singlet-?Sym   28.5870 eV   43.37 nm  f=0.0000  <S**2>=0.000
       4 -> 14         0.31055
       5 -> 16         0.62858

 Excited state symmetry could not be determined.
 Excited State  48:      Singlet-?Sym   28.5870 eV   43.37 nm  f=0.0000  <S**2>=0.000
       4 -> 15         0.31055
       5 -> 17         0.62858

 Excited State  49:      Singlet-SGU   30.2247 eV   41.02 nm  f=0.1438  <S**2>=0.000
       4 -> 18         0.14058
       5 -> 19         0.67633

 Excited state symmetry could not be determined.
 Excited State  50:      Singlet-?Sym   30.4933 eV   40.66 nm  f=0.1053  <S**2>=0.000
       3 -> 14        -0.11588
       4 -> 16         0.66490
       5 -> 14         0.10032
       6 -> 20         0.18307

 Excited state symmetry could not be determined.
 Excited State  51:      Singlet-?Sym   30.4933 eV   40.66 nm  f=0.1053  <S**2>=0.000
       3 -> 15        -0.11588
       4 -> 17         0.66490
       5 -> 15         0.10032
       7 -> 20         0.18307

 Excited State  52:      Singlet-SGG   30.7884 eV   40.27 nm  f=0.0000  <S**2>=0.000
       3 -> 13        -0.19621
       4 -> 19        -0.18147
       5 -> 18         0.62481
       6 -> 14        -0.10931
       7 -> 15        -0.10931

 Excited state symmetry could not be determined.
 Excited State  53:      Singlet-?Sym   30.9603 eV   40.05 nm  f=0.0305  <S**2>=0.000
       4 -> 17        -0.16870
       7 -> 20         0.67431

 Excited state symmetry could not be determined.
 Excited State  54:      Singlet-?Sym   30.9603 eV   40.05 nm  f=0.0305  <S**2>=0.000
       4 -> 16        -0.16870
       6 -> 20         0.67431

 Excited state symmetry could not be determined.
 Excited State  55:      Singlet-?Sym   31.8487 eV   38.93 nm  f=0.0000  <S**2>=0.000
       6 -> 21        -0.14368
       7 -> 21         0.68980

 Excited state symmetry could not be determined.
 Excited State  56:      Singlet-?Sym   31.8487 eV   38.93 nm  f=0.0000  <S**2>=0.000
       6 -> 21         0.68980
       7 -> 21         0.14368

 Excited state symmetry could not be determined.
 Excited State  57:      Singlet-?Sym   32.0594 eV   38.67 nm  f=0.0544  <S**2>=0.000
       3 -> 14         0.50088
       3 -> 15         0.47428

 Excited state symmetry could not be determined.
 Excited State  58:      Singlet-?Sym   32.0594 eV   38.67 nm  f=0.0544  <S**2>=0.000
       3 -> 14        -0.47428
       3 -> 15         0.50088

 Excited State  59:      Singlet-SGU   32.1669 eV   38.54 nm  f=0.1152  <S**2>=0.000
       4 -> 18         0.66858
       5 -> 19        -0.16949

 Excited State  60:      Singlet-SGG   33.3493 eV   37.18 nm  f=0.0000  <S**2>=0.000
       3 -> 13        -0.10754
       4 -> 19         0.66437
       5 -> 18         0.11171

 Excited state symmetry could not be determined.
 Excited State  61:      Singlet-?Sym   35.2813 eV   35.14 nm  f=0.0000  <S**2>=0.000
       3 -> 16        -0.45448
       3 -> 17         0.53777

 Excited state symmetry could not be determined.
 Excited State  62:      Singlet-?Sym   35.2813 eV   35.14 nm  f=0.0000  <S**2>=0.000
       3 -> 16         0.53777
       3 -> 17         0.45448

 Excited State  63:      Singlet-SGG   36.1885 eV   34.26 nm  f=0.0000  <S**2>=0.000
       3 -> 18         0.68713
       5 -> 20         0.14050

 Excited State  64:      Singlet-SGG   37.0400 eV   33.47 nm  f=0.0000  <S**2>=0.000
       3 -> 18        -0.14286
       5 -> 20         0.68803

 Excited State  65:      Singlet-SGU   37.1801 eV   33.35 nm  f=0.0175  <S**2>=0.000
       3 -> 19         0.65800
       5 -> 21         0.24421

 Excited state symmetry could not be determined.
 Excited State  66:      Singlet-?Sym   38.4936 eV   32.21 nm  f=0.0000  <S**2>=0.000
       6 -> 23        -0.49975
       7 -> 22         0.49975

 Excited state symmetry could not be determined.
 Excited State  67:      Singlet-?Sym   38.5192 eV   32.19 nm  f=0.0000  <S**2>=0.000
       6 -> 23         0.49974
       7 -> 22         0.49974

 Excited state symmetry could not be determined.
 Excited State  68:      Singlet-?Sym   38.5192 eV   32.19 nm  f=0.0000  <S**2>=0.000
       6 -> 22         0.49974
       7 -> 23        -0.49974

 Excited State  69:      Singlet-SGU   38.7714 eV   31.98 nm  f=0.0126  <S**2>=0.000
       4 -> 20         0.67233
       5 -> 21        -0.20657

 Excited State  70:      Singlet-SGG   39.7930 eV   31.16 nm  f=0.0000  <S**2>=0.000
       4 -> 21         0.58972
       6 -> 22        -0.26000
       7 -> 23        -0.26000

 Excited State  71:      Singlet-SGU   40.2734 eV   30.79 nm  f=0.0031  <S**2>=0.000
       3 -> 19        -0.23288
       3 -> 21         0.16292
       4 -> 20         0.19661
       5 -> 21         0.59531

 Excited state symmetry could not be determined.
 Excited State  72:      Singlet-?Sym   40.9164 eV   30.30 nm  f=0.0000  <S**2>=0.000
       6 -> 24        -0.26610
       7 -> 24         0.65352

 Excited state symmetry could not be determined.
 Excited State  73:      Singlet-?Sym   40.9164 eV   30.30 nm  f=0.0000  <S**2>=0.000
       6 -> 24         0.65352
       7 -> 24         0.26610

 Excited state symmetry could not be determined.
 Excited State  74:      Singlet-?Sym   41.2756 eV   30.04 nm  f=0.0000  <S**2>=0.000
       4 -> 21         0.37896
       6 -> 22         0.41566
       7 -> 23         0.41566

 Excited State  75:      Singlet-SGG   43.7287 eV   28.35 nm  f=0.0000  <S**2>=0.000
       3 -> 20         0.70102

 Excited state symmetry could not be determined.
 Excited State  76:      Singlet-?Sym   44.8194 eV   27.66 nm  f=0.1610  <S**2>=0.000
       5 -> 22         0.65873
       6 -> 28         0.16236
       7 -> 27        -0.16236

 Excited state symmetry could not be determined.
 Excited State  77:      Singlet-?Sym   44.8194 eV   27.66 nm  f=0.1610  <S**2>=0.000
       5 -> 23         0.65873
       6 -> 27        -0.16236
       7 -> 28        -0.16236

 Excited State  78:      Singlet-SGU   45.6495 eV   27.16 nm  f=0.2392  <S**2>=0.000
       3 -> 21         0.63167
       5 -> 21        -0.11162
       5 -> 24        -0.27000

 Excited state symmetry could not be determined.
 Excited State  79:      Singlet-?Sym   47.0520 eV   26.35 nm  f=0.0000  <S**2>=0.000
       6 -> 27        -0.34131
       6 -> 28         0.36540
       7 -> 27         0.36540
       7 -> 28         0.34131

 Excited state symmetry could not be determined.
 Excited State  80:      Singlet-?Sym   47.0520 eV   26.35 nm  f=0.0000  <S**2>=0.000
       6 -> 27         0.36540
       6 -> 28         0.34131
       7 -> 27         0.34131
       7 -> 28        -0.36540

 Excited state symmetry could not be determined.
 Excited State  81:      Singlet-?Sym   47.1433 eV   26.30 nm  f=0.0000  <S**2>=0.000
       4 -> 22         0.70321

 Excited state symmetry could not be determined.
 Excited State  82:      Singlet-?Sym   47.1433 eV   26.30 nm  f=0.0000  <S**2>=0.000
       4 -> 23         0.70321

 Excited State  83:      Singlet-SGU   47.2156 eV   26.26 nm  f=0.0724  <S**2>=0.000
       3 -> 21         0.19552
       5 -> 24         0.59761
       6 -> 26        -0.21428
       7 -> 25        -0.21428

 Excited state symmetry could not be determined.
 Excited State  84:      Singlet-?Sym   48.1751 eV   25.74 nm  f=0.0000  <S**2>=0.000
       6 -> 25         0.49991
       7 -> 26         0.49991

 Excited state symmetry could not be determined.
 Excited State  85:      Singlet-?Sym   48.1751 eV   25.74 nm  f=0.0000  <S**2>=0.000
       6 -> 26        -0.49991
       7 -> 25         0.49991

 Excited state symmetry could not be determined.
 Excited State  86:      Singlet-?Sym   48.2912 eV   25.67 nm  f=0.0000  <S**2>=0.000
       6 -> 25         0.49994
       7 -> 26        -0.49994

 Excited State  87:      Singlet-SGG   48.7832 eV   25.42 nm  f=0.0000  <S**2>=0.000
       4 -> 24         0.70283

 Excited state symmetry could not be determined.
 Excited State  88:      Singlet-?Sym   49.0528 eV   25.28 nm  f=0.0219  <S**2>=0.000
       3 -> 21         0.17233
       5 -> 24         0.24860
       6 -> 26         0.44654
       7 -> 25         0.44654

 Excited state symmetry could not be determined.
 Excited State  89:      Singlet-?Sym   50.7583 eV   24.43 nm  f=1.1704  <S**2>=0.000
       3 -> 22         0.43055
       3 -> 23         0.13450
       5 -> 22         0.19320
       6 -> 27         0.10560
       6 -> 28        -0.33805
       7 -> 27         0.33805
       7 -> 28         0.10560

 Excited state symmetry could not be determined.
 Excited State  90:      Singlet-?Sym   50.7583 eV   24.43 nm  f=1.1704  <S**2>=0.000
       3 -> 22        -0.13450
       3 -> 23         0.43055
       5 -> 23         0.19320
       6 -> 27         0.33805
       6 -> 28         0.10560
       7 -> 27        -0.10560
       7 -> 28         0.33805

 Excited state symmetry could not be determined.
 Excited State  91:      Singlet-?Sym   52.3729 eV   23.67 nm  f=0.8704  <S**2>=0.000
       3 -> 22         0.46421
       3 -> 23         0.27517
       5 -> 22        -0.10278
       6 -> 27        -0.15329
       6 -> 28         0.25860
       7 -> 27        -0.25860
       7 -> 28        -0.15329

 Excited state symmetry could not be determined.
 Excited State  92:      Singlet-?Sym   52.3729 eV   23.67 nm  f=0.8704  <S**2>=0.000
       3 -> 22        -0.27517
       3 -> 23         0.46421
       5 -> 23        -0.10278
       6 -> 27        -0.25860
       6 -> 28        -0.15329
       7 -> 27         0.15329
       7 -> 28        -0.25860

 Excited state symmetry could not be determined.
 Excited State  93:      Singlet-?Sym   53.0364 eV   23.38 nm  f=0.0000  <S**2>=0.000
       5 -> 28         0.70460

 Excited state symmetry could not be determined.
 Excited State  94:      Singlet-?Sym   53.0364 eV   23.38 nm  f=0.0000  <S**2>=0.000
       5 -> 27         0.70460

 Excited State  95:      Singlet-SGU   54.0559 eV   22.94 nm  f=0.0377  <S**2>=0.000
       3 -> 24         0.70291

 Excited state symmetry could not be determined.
 Excited State  96:      Singlet-?Sym   54.1181 eV   22.91 nm  f=0.0000  <S**2>=0.000
       5 -> 25         0.69454

 Excited state symmetry could not be determined.
 Excited State  97:      Singlet-?Sym   54.1181 eV   22.91 nm  f=0.0000  <S**2>=0.000
       5 -> 26         0.69454

 Excited state symmetry could not be determined.
 Excited State  98:      Singlet-?Sym   55.3086 eV   22.42 nm  f=0.0000  <S**2>=0.000
       4 -> 27         0.70369

 Excited state symmetry could not be determined.
 Excited State  99:      Singlet-?Sym   55.3087 eV   22.42 nm  f=0.0000  <S**2>=0.000
       4 -> 28         0.70369

 Excited state symmetry could not be determined.
 Excited State 100:      Singlet-?Sym   56.1640 eV   22.08 nm  f=0.2120  <S**2>=0.000
       4 -> 25         0.69878

 Excited state symmetry could not be determined.
 Excited State 101:      Singlet-?Sym   56.1640 eV   22.08 nm  f=0.2120  <S**2>=0.000
       4 -> 26         0.69878

 Excited state symmetry could not be determined.
 Excited State 102:      Singlet-?Sym   57.6643 eV   21.50 nm  f=0.0000  <S**2>=0.000
       6 -> 30         0.49890
       7 -> 29         0.49890

 Excited state symmetry could not be determined.
 Excited State 103:      Singlet-?Sym   57.6643 eV   21.50 nm  f=0.0000  <S**2>=0.000
       6 -> 29         0.49890
       7 -> 30        -0.49890

 Excited state symmetry could not be determined.
 Excited State 104:      Singlet-?Sym   59.6121 eV   20.80 nm  f=0.0706  <S**2>=0.000
       6 -> 31        -0.11582
       7 -> 31         0.69068

 Excited state symmetry could not be determined.
 Excited State 105:      Singlet-?Sym   59.6121 eV   20.80 nm  f=0.0706  <S**2>=0.000
       6 -> 31         0.69068
       7 -> 31         0.11582

 Excited state symmetry could not be determined.
 Excited State 106:      Singlet-?Sym   59.9125 eV   20.69 nm  f=0.0000  <S**2>=0.000
       6 -> 29         0.46886
       6 -> 30         0.14637
       7 -> 29        -0.14637
       7 -> 30         0.46887

 Excited state symmetry could not be determined.
 Excited State 107:      Singlet-?Sym   59.9125 eV   20.69 nm  f=0.0000  <S**2>=0.000
       6 -> 29        -0.14637
       6 -> 30         0.46887
       7 -> 29        -0.46886
       7 -> 30        -0.14637

 Excited state symmetry could not be determined.
 Excited State 108:      Singlet-?Sym   59.9130 eV   20.69 nm  f=0.0000  <S**2>=0.000
       3 -> 27        -0.21558
       6 -> 32         0.47570
       7 -> 33         0.47570

 Excited state symmetry could not be determined.
 Excited State 109:      Singlet-?Sym   59.9130 eV   20.69 nm  f=0.0000  <S**2>=0.000
       3 -> 28        -0.21555
       6 -> 33        -0.47571
       7 -> 32         0.47571

 Excited state symmetry could not be determined.
 Excited State 110:      Singlet-?Sym   60.0656 eV   20.64 nm  f=0.0000  <S**2>=0.000
       6 -> 32        -0.49975
       7 -> 33         0.49975

 Excited state symmetry could not be determined.
 Excited State 111:      Singlet-?Sym   60.4624 eV   20.51 nm  f=0.0000  <S**2>=0.000
       3 -> 28         0.67231
       6 -> 33        -0.15289
       7 -> 32         0.15289

 Excited state symmetry could not be determined.
 Excited State 112:      Singlet-?Sym   60.4624 eV   20.51 nm  f=0.0000  <S**2>=0.000
       3 -> 27         0.67230

 The electronic state is 1-SGG.
 Alpha  occ. eigenvalues --  -10.31015 -10.30774  -0.84028  -0.65164  -0.58079
 Alpha  occ. eigenvalues --   -0.37549  -0.37549
 Alpha virt. eigenvalues --    0.11412   0.11412   0.16371   0.19192   0.34667
 Alpha virt. eigenvalues --    0.36228   0.56038   0.56038   0.68591   0.68591
 Alpha virt. eigenvalues --    0.69161   0.73324   0.97815   1.03239   1.27264

 Mulliken charges:
               1
     1  C   -0.062259
     2  C   -0.062259
     3  H    0.062259
     4  H    0.062259
 Sum of Mulliken charges =   0.00000

 Dipole moment (field-independent basis, Debye):
    X=              0.0000    Y=             -0.0000    Z=             -0.0000  Tot=              0.0000
 Quadrupole moment (field-independent basis, Debye-Ang):
   XX=            -13.3441   YY=            -13.3441   ZZ=             -6.8552
   XY=             -0.0000   XZ=             -0.0000   YZ=              0.0000

 Normal termination of Gaussian 16 at Sat Aug 14 07:22:51 2021.
