 Gaussian 16, Revision C.01,
 Gaussian 16:  EM64L-G16RevC.01  3-Jul-2019

 ----------------------------------------------------------------------
 #P TD(Nstates=10000) wB97XD/def2SVP SCF(maxcycles=100) Int(Grid=ultraf
 ine)
 ----------------------------------------------------------------------

 ---------------------
 xGDB7_00001_tier4.com
 ---------------------
 Symbolic Z-matrix:
 Charge =  0 Multiplicity = 1

                         Standard orientation:
 ---------------------------------------------------------------------
 Center     Atomic      Atomic             Coordinates (Angstroms)
 Number     Number       Type             X           Y           Z
 ---------------------------------------------------------------------
      1          6           0        0.926669   -0.722797    0.000000
      2          6           0        0.000000    0.460274    0.000000
      3          8           0       -1.198832    0.391877    0.000000
      4          1           0        1.582040   -0.679438    0.884475
      5          1           0        1.582040   -0.679438   -0.884475
      6          1           0        0.354084   -1.659182    0.000000
      7          1           0        0.512478    1.458180    0.000000
 ---------------------------------------------------------------------

 SCF Done:  E(RwB97XD) =  -153.664986793     A.U. after   14 cycles

 Excitation energies and oscillator strengths:

 Excited State   1:      Singlet-A"     4.3844 eV  282.78 nm  f=0.0000  <S**2>=0.000
      12 -> 13         0.70488
 This state for optimization and/or second-order correction.
 Total Energy, E(TD-HF/TD-DFT) =  -153.503863019
 Copying the excited state density for this state as the 1-particle RhoCI density.

 Excited State   2:      Singlet-A'     8.7791 eV  141.23 nm  f=0.0379  <S**2>=0.000
      11 -> 13        -0.26733
      12 -> 14         0.60081
      12 -> 15        -0.24249

 Excited State   3:      Singlet-A"     8.9808 eV  138.05 nm  f=0.0009  <S**2>=0.000
       7 -> 13         0.14266
       9 -> 13        -0.17809
      10 -> 13         0.66691

 Excited State   4:      Singlet-A'     9.4308 eV  131.47 nm  f=0.1710  <S**2>=0.000
      12 -> 14         0.27012
      12 -> 15         0.64947

 Excited State   5:      Singlet-A'     9.6987 eV  127.84 nm  f=0.2612  <S**2>=0.000
       8 -> 13        -0.13436
      11 -> 13         0.61819
      12 -> 14         0.23300
      12 -> 15        -0.10753
      12 -> 18         0.12218

 Excited State   6:      Singlet-A"     9.7068 eV  127.73 nm  f=0.0021  <S**2>=0.000
       9 -> 13         0.67886
      10 -> 13         0.16550

 Excited State   7:      Singlet-A'    10.2356 eV  121.13 nm  f=0.0014  <S**2>=0.000
      12 -> 17         0.69191

 Excited State   8:      Singlet-A"    10.3381 eV  119.93 nm  f=0.0197  <S**2>=0.000
      12 -> 16         0.70087

 Excited State   9:      Singlet-A"    11.1249 eV  111.45 nm  f=0.0075  <S**2>=0.000
       7 -> 13         0.67565
      10 -> 13        -0.15893

 Excited State  10:      Singlet-A'    11.3455 eV  109.28 nm  f=0.0345  <S**2>=0.000
       8 -> 13         0.67438

 Excited State  11:      Singlet-A"    11.5802 eV  107.07 nm  f=0.0853  <S**2>=0.000
       8 -> 14        -0.12388
      11 -> 14         0.68041
      11 -> 15        -0.10329

 Excited State  12:      Singlet-A'    12.0893 eV  102.56 nm  f=0.0725  <S**2>=0.000
      10 -> 14         0.63464
      12 -> 18         0.25239

 Excited State  13:      Singlet-A"    12.2394 eV  101.30 nm  f=0.0272  <S**2>=0.000
       8 -> 14        -0.14344
      11 -> 15         0.68221

 Excited State  14:      Singlet-A'    12.3858 eV  100.10 nm  f=0.1364  <S**2>=0.000
      10 -> 14        -0.24877
      12 -> 18         0.56135
      12 -> 19        -0.30044

 Excited State  15:      Singlet-A"    13.0309 eV   95.15 nm  f=0.0206  <S**2>=0.000
       8 -> 14        -0.12780
       8 -> 17        -0.10588
      10 -> 16         0.14327
      11 -> 17         0.65856

 Excited State  16:      Singlet-A'    13.1387 eV   94.37 nm  f=0.2746  <S**2>=0.000
      10 -> 15         0.48126
      10 -> 17        -0.13634
      11 -> 16        -0.46855

 Excited State  17:      Singlet-A'    13.3042 eV   93.19 nm  f=0.3744  <S**2>=0.000
      10 -> 15         0.43542
      11 -> 16         0.41385
      12 -> 18         0.13239
      12 -> 19         0.28798

 Excited State  18:      Singlet-A"    13.4384 eV   92.26 nm  f=0.0829  <S**2>=0.000
       7 -> 16        -0.10064
      10 -> 16         0.66556
      11 -> 17        -0.14817

 Excited State  19:      Singlet-A'    13.4775 eV   91.99 nm  f=0.1234  <S**2>=0.000
       9 -> 14         0.23753
       9 -> 17        -0.10241
      10 -> 15        -0.22750
      11 -> 16        -0.25004
      12 -> 18         0.21562
      12 -> 19         0.49669

 Excited State  20:      Singlet-A"    13.6664 eV   90.72 nm  f=0.1201  <S**2>=0.000
       6 -> 13         0.14199
       8 -> 14         0.64766
      11 -> 14         0.13811
      11 -> 15         0.10448
      11 -> 17         0.12534

 Excited State  21:      Singlet-A'    13.8611 eV   89.45 nm  f=0.0542  <S**2>=0.000
       9 -> 14         0.60142
       9 -> 15        -0.12771
      10 -> 17         0.16211
      12 -> 18        -0.13560
      12 -> 19        -0.19907

 Excited State  22:      Singlet-A'    14.1248 eV   87.78 nm  f=0.0796  <S**2>=0.000
       8 -> 16        -0.10226
       9 -> 14        -0.11280
       9 -> 15         0.14586
      10 -> 17         0.63797
      11 -> 16        -0.15351

 Excited State  23:      Singlet-A'    14.2935 eV   86.74 nm  f=0.0955  <S**2>=0.000
       9 -> 14         0.14548
       9 -> 15         0.66304
      10 -> 17        -0.10771

 Excited State  24:      Singlet-A"    14.3560 eV   86.36 nm  f=0.0674  <S**2>=0.000
       6 -> 13         0.58046
       8 -> 14        -0.11620
       8 -> 15         0.29495
       8 -> 17         0.16338

 Excited State  25:      Singlet-A"    14.5144 eV   85.42 nm  f=0.0070  <S**2>=0.000
       6 -> 13        -0.24245
       8 -> 15         0.61787
       8 -> 17        -0.16664
      11 -> 19         0.11896

 Excited State  26:      Singlet-A'    14.9394 eV   82.99 nm  f=0.0389  <S**2>=0.000
       7 -> 14         0.59848
       7 -> 15        -0.12688
       8 -> 16         0.23453
       9 -> 14        -0.11296
       9 -> 17         0.18083

 Excited State  27:      Singlet-A"    15.0290 eV   82.50 nm  f=0.0719  <S**2>=0.000
       7 -> 16         0.19321
       8 -> 17        -0.22849
       9 -> 16         0.58474
      11 -> 18        -0.18325

 Excited State  28:      Singlet-A"    15.1464 eV   81.86 nm  f=0.0756  <S**2>=0.000
       6 -> 13        -0.18017
       7 -> 16         0.11165
       8 -> 17         0.51670
       9 -> 16         0.29184
      11 -> 18         0.26148
      11 -> 19         0.12317

 Excited State  29:      Singlet-A'    15.2156 eV   81.49 nm  f=0.2810  <S**2>=0.000
       7 -> 15         0.18465
       7 -> 17         0.17405
       8 -> 16        -0.36562
       9 -> 17         0.50967

 Excited State  30:      Singlet-A'    15.4052 eV   80.48 nm  f=0.0093  <S**2>=0.000
       7 -> 14         0.29997
       7 -> 15         0.37623
       7 -> 17        -0.14861
       8 -> 16        -0.30814
       9 -> 17        -0.32857

 Excited State  31:      Singlet-A"    15.5277 eV   79.85 nm  f=0.0158  <S**2>=0.000
       8 -> 17        -0.28767
      11 -> 18         0.60867
      11 -> 19        -0.13824

 Excited State  32:      Singlet-A'    15.6045 eV   79.45 nm  f=0.1339  <S**2>=0.000
       7 -> 15         0.52441
       7 -> 17         0.12314
       8 -> 16         0.39776

 Excited State  33:      Singlet-A"    15.9990 eV   77.49 nm  f=0.1349  <S**2>=0.000
       6 -> 13         0.13297
       7 -> 16        -0.21934
       8 -> 17        -0.13705
       9 -> 16         0.10408
      11 -> 19         0.60894

 Excited State  34:      Singlet-A'    16.3058 eV   76.04 nm  f=0.1100  <S**2>=0.000
       7 -> 17         0.52655
       9 -> 17        -0.22257
      10 -> 18         0.28734
      10 -> 19         0.21475

 Excited State  35:      Singlet-A"    16.3278 eV   75.93 nm  f=0.1378  <S**2>=0.000
       7 -> 16         0.61647
       9 -> 16        -0.19169
      10 -> 16         0.10514
      11 -> 19         0.22134

 Excited State  36:      Singlet-A'    16.5129 eV   75.08 nm  f=0.0169  <S**2>=0.000
       7 -> 17        -0.35596
      10 -> 18         0.39939
      10 -> 19         0.43230

 Excited State  37:      Singlet-A'    16.9993 eV   72.94 nm  f=0.1016  <S**2>=0.000
       7 -> 17        -0.10907
       9 -> 18        -0.23682
      10 -> 18         0.44291
      10 -> 19        -0.44009

 Excited State  38:      Singlet-A'    17.2935 eV   71.69 nm  f=0.1258  <S**2>=0.000
       6 -> 14         0.48947
       6 -> 15        -0.13473
       9 -> 18         0.41125
       9 -> 19        -0.15081
      10 -> 18         0.13067
      10 -> 19        -0.13678

 Excited State  39:      Singlet-A'    17.7610 eV   69.81 nm  f=0.0576  <S**2>=0.000
       6 -> 14         0.36672
       9 -> 18        -0.24147
       9 -> 19         0.51923

 Excited State  40:      Singlet-A"    17.8249 eV   69.56 nm  f=0.0360  <S**2>=0.000
       8 -> 18         0.44846
       8 -> 19         0.52664

 Excited State  41:      Singlet-A'    18.0923 eV   68.53 nm  f=0.0594  <S**2>=0.000
       6 -> 14        -0.27656
       6 -> 15        -0.31756
       9 -> 18         0.24111
       9 -> 19         0.24788
      12 -> 20         0.41608

 Excited State  42:      Singlet-A"    18.1012 eV   68.50 nm  f=0.0446  <S**2>=0.000
       8 -> 18         0.52465
       8 -> 19        -0.45296

 Excited State  43:      Singlet-A'    18.3184 eV   67.68 nm  f=0.2126  <S**2>=0.000
       6 -> 14         0.13340
       6 -> 15        -0.13044
       7 -> 19         0.19099
       9 -> 18        -0.31671
       9 -> 19        -0.30463
      10 -> 19         0.10751
      12 -> 20         0.42833

 Excited State  44:      Singlet-A"    18.3542 eV   67.55 nm  f=0.0029  <S**2>=0.000
      12 -> 21         0.65522
      12 -> 23         0.23837

 Excited State  45:      Singlet-A'    18.4384 eV   67.24 nm  f=0.0256  <S**2>=0.000
       6 -> 15         0.54340
       7 -> 18        -0.21059
       9 -> 18         0.13623
       9 -> 19         0.10827
      12 -> 20         0.30152

 Excited State  46:      Singlet-A'    18.7912 eV   65.98 nm  f=0.0187  <S**2>=0.000
       6 -> 15         0.12154
       6 -> 17         0.15889
       7 -> 18         0.62605
       7 -> 19        -0.11782
      12 -> 20         0.13361

 Excited State  47:      Singlet-A"    18.9119 eV   65.56 nm  f=0.0140  <S**2>=0.000
       6 -> 16         0.68906

 Excited State  48:      Singlet-A'    18.9802 eV   65.32 nm  f=0.0437  <S**2>=0.000
       6 -> 15        -0.13754
       6 -> 17         0.61397
       7 -> 18        -0.15790
       7 -> 19        -0.22109

 Excited State  49:      Singlet-A"    19.2152 eV   64.52 nm  f=0.0309  <S**2>=0.000
       5 -> 13         0.69535

 Excited State  50:      Singlet-A'    19.6246 eV   63.18 nm  f=0.1656  <S**2>=0.000
       6 -> 14        -0.10599
       6 -> 17         0.21960
       7 -> 19         0.57485
       9 -> 18         0.11496
      11 -> 21        -0.17437

 Excited State  51:      Singlet-A"    19.9337 eV   62.20 nm  f=0.0022  <S**2>=0.000
      12 -> 21        -0.23534
      12 -> 23         0.66247

 Excited State  52:      Singlet-A'    20.2277 eV   61.29 nm  f=0.1326  <S**2>=0.000
      12 -> 22         0.66991

 Excited State  53:      Singlet-A"    20.9010 eV   59.32 nm  f=0.1085  <S**2>=0.000
      11 -> 20         0.67835
      11 -> 22         0.11442

 Excited State  54:      Singlet-A'    21.4975 eV   57.67 nm  f=0.0523  <S**2>=0.000
       6 -> 18         0.45858
       6 -> 19        -0.28437
      10 -> 20         0.37419
      10 -> 22         0.10284
      11 -> 21        -0.15477
      12 -> 24        -0.10913

 Excited State  55:      Singlet-A'    21.6465 eV   57.28 nm  f=0.0081  <S**2>=0.000
       5 -> 14        -0.17060
      11 -> 21        -0.23639
      12 -> 24         0.59032
      12 -> 29        -0.10246

 Excited State  56:      Singlet-A'    21.7036 eV   57.13 nm  f=0.0062  <S**2>=0.000
       6 -> 18         0.26173
       6 -> 19         0.53631
      10 -> 20         0.18254
      11 -> 21         0.24745

 Excited State  57:      Singlet-A'    21.8690 eV   56.69 nm  f=0.0816  <S**2>=0.000
       5 -> 14        -0.26188
       6 -> 18        -0.39199
      10 -> 20         0.45040
      10 -> 22         0.16817

 Excited State  58:      Singlet-A'    21.9640 eV   56.45 nm  f=0.1153  <S**2>=0.000
       5 -> 14        -0.27667
       6 -> 18         0.12152
       6 -> 19        -0.28052
      10 -> 20        -0.13290
      11 -> 21         0.48799
      12 -> 25         0.10246

 Excited State  59:      Singlet-A"    22.1098 eV   56.08 nm  f=0.0568  <S**2>=0.000
       9 -> 21         0.10800
      10 -> 21         0.60192
      11 -> 22         0.32059

 Excited State  60:      Singlet-A'    22.2374 eV   55.75 nm  f=0.0948  <S**2>=0.000
       5 -> 14         0.54127
       6 -> 19        -0.13905
      10 -> 20         0.14365
      11 -> 21         0.14387
      11 -> 23         0.11859
      12 -> 24         0.23207

 Excited State  61:      Singlet-A"    22.5392 eV   55.01 nm  f=0.1119  <S**2>=0.000
       9 -> 21        -0.15293
      10 -> 21        -0.26530
      11 -> 20        -0.11218
      11 -> 22         0.59532

 Excited State  62:      Singlet-A'    22.7679 eV   54.46 nm  f=0.0235  <S**2>=0.000
       5 -> 15         0.26856
      12 -> 25         0.61179
      12 -> 27        -0.12995

 Excited State  63:      Singlet-A"    22.7862 eV   54.41 nm  f=0.0938  <S**2>=0.000
       8 -> 20         0.67495
      11 -> 24         0.13277

 Excited State  64:      Singlet-A'    22.9620 eV   54.00 nm  f=0.0084  <S**2>=0.000
       9 -> 20         0.62523
      10 -> 22         0.21813
      12 -> 26        -0.10868

 Excited State  65:      Singlet-A'    23.0175 eV   53.87 nm  f=0.0506  <S**2>=0.000
       5 -> 15         0.48721
       5 -> 17        -0.17834
      10 -> 22         0.19460
      11 -> 21         0.13386
      11 -> 23        -0.29387
      12 -> 25        -0.19503

 Excited State  66:      Singlet-A'    23.2194 eV   53.40 nm  f=0.0030  <S**2>=0.000
       5 -> 15         0.29731
      10 -> 22         0.14875
      11 -> 23         0.55438

 Excited State  67:      Singlet-A"    23.2475 eV   53.33 nm  f=0.0237  <S**2>=0.000
       9 -> 21         0.59649
       9 -> 23         0.16536
      10 -> 21        -0.14311
      10 -> 23        -0.25448

 Excited State  68:      Singlet-A"    23.3435 eV   53.11 nm  f=0.0100  <S**2>=0.000
       5 -> 16         0.65655
       9 -> 21        -0.15277
      10 -> 23        -0.11038

 Excited State  69:      Singlet-A'    23.5427 eV   52.66 nm  f=0.0585  <S**2>=0.000
       5 -> 15        -0.18798
       9 -> 20        -0.10343
      10 -> 20        -0.12443
      10 -> 22         0.45087
      12 -> 26         0.41619

 Excited State  70:      Singlet-A'    23.6290 eV   52.47 nm  f=0.0008  <S**2>=0.000
       5 -> 15         0.11145
       5 -> 17         0.50237
       9 -> 20         0.10836
      12 -> 26         0.25059
      12 -> 29        -0.31553
      12 -> 30        -0.10587

 Excited State  71:      Singlet-A'    23.7560 eV   52.19 nm  f=0.0231  <S**2>=0.000
       5 -> 17         0.34620
       8 -> 21         0.44804
      10 -> 22         0.12316
      11 -> 23        -0.12464
      12 -> 26        -0.19693
      12 -> 29         0.25379

 Excited State  72:      Singlet-A'    23.8022 eV   52.09 nm  f=0.0288  <S**2>=0.000
       5 -> 17        -0.16975
       7 -> 20         0.28604
       8 -> 21         0.37229
      12 -> 24        -0.10491
      12 -> 27         0.17359
      12 -> 29        -0.36187
      12 -> 30        -0.15439

 Excited State  73:      Singlet-A"    23.8202 eV   52.05 nm  f=0.0006  <S**2>=0.000
       5 -> 16         0.13655
       7 -> 21         0.26329
       8 -> 22         0.21550
       9 -> 21         0.14834
      10 -> 23         0.55245

 Excited State  74:      Singlet-A'    24.1323 eV   51.38 nm  f=0.1627  <S**2>=0.000
       5 -> 17         0.12101
       7 -> 20         0.48344
       8 -> 21        -0.24534
       9 -> 20        -0.14563
       9 -> 22        -0.25701
      10 -> 22         0.17968
      12 -> 26        -0.13502

 Excited State  75:      Singlet-A'    24.4009 eV   50.81 nm  f=0.0835  <S**2>=0.000
       5 -> 17        -0.13295
       7 -> 20         0.22941
       8 -> 21         0.13348
       8 -> 23         0.15718
       9 -> 20         0.15262
       9 -> 22        -0.22824
      10 -> 20         0.16114
      10 -> 22        -0.21337
      10 -> 24         0.12668
      12 -> 26         0.34207
      12 -> 27        -0.14411
      12 -> 29         0.18790

 Excited State  76:      Singlet-A"    24.4348 eV   50.74 nm  f=0.0117  <S**2>=0.000
       7 -> 21         0.13534
       8 -> 22         0.33795
      10 -> 23        -0.12284
      11 -> 24        -0.21237
      12 -> 28         0.52598

 Excited State  77:      Singlet-A"    24.5673 eV   50.47 nm  f=0.0114  <S**2>=0.000
       7 -> 21         0.47435
       8 -> 22         0.12982
       9 -> 23        -0.30477
      10 -> 23        -0.25242
      12 -> 28        -0.28907

 Excited State  78:      Singlet-A"    24.6289 eV   50.34 nm  f=0.0042  <S**2>=0.000
       4 -> 13         0.11951
       7 -> 21         0.10436
       8 -> 20        -0.11510
      11 -> 24         0.60461
      12 -> 28         0.23068

 Excited State  79:      Singlet-A'    24.6481 eV   50.30 nm  f=0.0990  <S**2>=0.000
       7 -> 20         0.12317
       8 -> 23        -0.18461
       9 -> 22         0.38032
      12 -> 26         0.11885
      12 -> 27         0.36317
      12 -> 29         0.26197

 Excited State  80:      Singlet-A'    24.7179 eV   50.16 nm  f=0.0028  <S**2>=0.000
       7 -> 20        -0.19858
       9 -> 22        -0.41224
      12 -> 27         0.48622

 Excited State  81:      Singlet-A"    24.8881 eV   49.82 nm  f=0.0047  <S**2>=0.000
       7 -> 21         0.17501
       7 -> 23         0.15063
       9 -> 21        -0.20773
       9 -> 23         0.59060
      10 -> 23        -0.12985
      12 -> 28        -0.14336

 Excited State  82:      Singlet-A"    24.9569 eV   49.68 nm  f=0.1898  <S**2>=0.000
       7 -> 21        -0.27146
       7 -> 23        -0.18649
       8 -> 20        -0.12075
       8 -> 22         0.48975
      10 -> 21         0.11299
      11 -> 24         0.14633
      12 -> 28        -0.21925

 Excited State  83:      Singlet-A'    25.2614 eV   49.08 nm  f=0.0462  <S**2>=0.000
       5 -> 19         0.11367
       7 -> 22        -0.21444
       8 -> 23         0.48934
       9 -> 22         0.13493
      10 -> 24        -0.21703
      12 -> 27         0.14884
      12 -> 30         0.24166

 Excited State  84:      Singlet-A'    25.3418 eV   48.92 nm  f=0.0130  <S**2>=0.000
       8 -> 23        -0.28455
      12 -> 29        -0.19479
      12 -> 30         0.57843

 Excited State  85:      Singlet-A'    25.6116 eV   48.41 nm  f=0.3594  <S**2>=0.000
       7 -> 20        -0.10591
       8 -> 23         0.17632
       8 -> 28        -0.11236
       9 -> 24         0.12733
      10 -> 24         0.59238
      10 -> 27         0.10125
      11 -> 28         0.13881

 Excited State  86:      Singlet-A"    25.7229 eV   48.20 nm  f=0.0015  <S**2>=0.000
       8 -> 22         0.11852
      11 -> 25         0.66166
      11 -> 27        -0.13767

 Excited State  87:      Singlet-A'    25.7491 eV   48.15 nm  f=0.0068  <S**2>=0.000
       5 -> 19         0.10640
       7 -> 22         0.61613
       8 -> 23         0.12432
      12 -> 30         0.14879

 Excited State  88:      Singlet-A"    26.0667 eV   47.56 nm  f=0.0365  <S**2>=0.000
       4 -> 13         0.36915
       7 -> 23         0.20134
       8 -> 24         0.32272
      11 -> 24        -0.13907
      11 -> 26         0.28391
      11 -> 29        -0.28754

 Excited State  89:      Singlet-A"    26.1595 eV   47.40 nm  f=0.0510  <S**2>=0.000
       4 -> 13        -0.15129
       7 -> 21        -0.18545
       7 -> 23         0.58693
       8 -> 24        -0.10649
       9 -> 23        -0.12150
      10 -> 28         0.12035
      11 -> 29         0.10760

 Excited State  90:      Singlet-A'    26.3849 eV   46.99 nm  f=0.0128  <S**2>=0.000
       5 -> 18         0.48585
       5 -> 19         0.35157
       6 -> 20         0.26385
       8 -> 23        -0.12140
      10 -> 26         0.10960

 Excited State  91:      Singlet-A"    26.5171 eV   46.76 nm  f=0.0105  <S**2>=0.000
       4 -> 13        -0.33769
       8 -> 22        -0.10910
      11 -> 26         0.54953
      11 -> 29         0.15030
      11 -> 30         0.10432

 Excited State  92:      Singlet-A'    26.5868 eV   46.63 nm  f=0.0707  <S**2>=0.000
       5 -> 18         0.11108
       5 -> 19        -0.35438
       6 -> 20         0.27226
       7 -> 24         0.13499
       9 -> 24         0.46833
      10 -> 24        -0.11505

 Excited State  93:      Singlet-A'    26.7020 eV   46.43 nm  f=0.0444  <S**2>=0.000
       5 -> 18         0.45671
       5 -> 19        -0.24556
       6 -> 20        -0.33951
       7 -> 24        -0.10548
      10 -> 25        -0.20626
      10 -> 26        -0.14865

 Excited State  94:      Singlet-A"    26.7576 eV   46.34 nm  f=0.0275  <S**2>=0.000
       4 -> 13        -0.27559
       8 -> 24         0.54392
       8 -> 27         0.11211
      11 -> 26        -0.25159
      11 -> 27        -0.12000

 Excited State  95:      Singlet-A'    26.9232 eV   46.05 nm  f=0.2159  <S**2>=0.000
       5 -> 18        -0.10977
       5 -> 19         0.31835
       6 -> 20        -0.21476
       9 -> 24         0.38894
       9 -> 25         0.10169
      10 -> 25        -0.36172

 Excited State  96:      Singlet-A"    27.0230 eV   45.88 nm  f=0.0012  <S**2>=0.000
       4 -> 13         0.28308
       6 -> 21         0.33183
       6 -> 23         0.13911
       8 -> 24         0.13648
       8 -> 29         0.11443
      11 -> 29         0.44930
      11 -> 30         0.17624

 The electronic state is 1-A'.
 Alpha  occ. eigenvalues --  -19.25664 -10.39159 -10.31076  -1.14227  -0.84667
 Alpha  occ. eigenvalues --   -0.66637  -0.56914  -0.53489  -0.52526  -0.48306
 Alpha  occ. eigenvalues --   -0.45241  -0.34071
 Alpha virt. eigenvalues --    0.05462   0.14828   0.17672   0.20206   0.20952
 Alpha virt. eigenvalues --    0.31778   0.32735   0.51431   0.53315   0.57288
 Alpha virt. eigenvalues --    0.59261   0.65325   0.69857   0.71409   0.73687

 Mulliken charges:
               1
     1  C   -0.092683
     2  C    0.100082
     3  O   -0.222747
     4  H    0.066182
     5  H    0.066182
     6  H    0.066646
     7  H    0.016339
 Sum of Mulliken charges =  -0.00000

 Dipole moment (field-independent basis, Debye):
    X=              2.6852    Y=             -0.3068    Z=              0.0000  Tot=              2.7027
 Quadrupole moment (field-independent basis, Debye-Ang):
   XX=            -20.6270   YY=            -17.8134   ZZ=            -17.6039
   XY=              0.8524   XZ=              0.0000   YZ=             -0.0000

 Normal termination of Gaussian 16 at Sat Aug 14 23:32:55 2021.
