 Gaussian 16, Revision C.01,
 Gaussian 16:  EM64L-G16RevC.01  3-Jul-2019

 ----------------------------------------------------------------------
 #P TD(Nstates=10000) wB97XD/def2SVP SCF(maxcycles=100) Int(Grid=ultraf
 ine)
 ----------------------------------------------------------------------

 ---------------------
 xGDB7_00001_tier4.com
 ---------------------
 Symbolic Z-matrix:
 Charge =  0 Multiplicity = 1

                         Standard orientation:
 ---------------------------------------------------------------------
 Center     Atomic      Atomic             Coordinates (Angstroms)
 Number     Number       Type             X           Y           Z
 ---------------------------------------------------------------------
      1          9           0        0.000000    1.096529   -0.287503
      2          6           0       -0.000000   -0.000000    0.492273
      3          9           0       -0.000000   -1.096529   -0.287503
      4          1           0       -0.913384    0.000000    1.110708
      5          1           0        0.913384   -0.000000    1.110708
 ---------------------------------------------------------------------

 SCF Done:  E(RwB97XD) =  -238.731940960     A.U. after   12 cycles

 Excitation energies and oscillator strengths:

 Excited State   1:      Singlet-B1    10.6220 eV  116.72 nm  f=0.1781  <S**2>=0.000
      13 -> 14         0.70081
 This state for optimization and/or second-order correction.
 Total Energy, E(TD-HF/TD-DFT) =  -238.341589237
 Copying the excited state density for this state as the 1-particle RhoCI density.

 Excited State   2:      Singlet-A2    11.2642 eV  110.07 nm  f=0.0000  <S**2>=0.000
      13 -> 16         0.70443

 Excited State   3:      Singlet-A1    12.1331 eV  102.19 nm  f=0.1209  <S**2>=0.000
      11 -> 14        -0.12256
      12 -> 16        -0.10708
      13 -> 15         0.68612

 Excited State   4:      Singlet-B1    12.5182 eV   99.04 nm  f=0.0153  <S**2>=0.000
      10 -> 16         0.12520
      13 -> 17         0.68732

 Excited State   5:      Singlet-B2    12.6459 eV   98.04 nm  f=0.0080  <S**2>=0.000
      11 -> 16        -0.13132
      12 -> 14         0.68748

 Excited State   6:      Singlet-A1    12.8995 eV   96.12 nm  f=0.0182  <S**2>=0.000
      11 -> 14         0.64140
      11 -> 17        -0.10646
      12 -> 16        -0.26414

 Excited State   7:      Singlet-A2    13.1478 eV   94.30 nm  f=0.0000  <S**2>=0.000
      10 -> 14         0.69191
      10 -> 17        -0.14023

 Excited State   8:      Singlet-A1    13.2308 eV   93.71 nm  f=0.0715  <S**2>=0.000
      11 -> 14         0.25381
      12 -> 16         0.63756
      13 -> 15         0.14405

 Excited State   9:      Singlet-B2    13.5639 eV   91.41 nm  f=0.0263  <S**2>=0.000
      10 -> 15        -0.11727
      11 -> 16         0.56417
      12 -> 14         0.15421
      12 -> 17         0.37190

 Excited State  10:      Singlet-A2    13.6961 eV   90.53 nm  f=0.0000  <S**2>=0.000
      12 -> 15         0.70565

 Excited State  11:      Singlet-B1    13.7179 eV   90.38 nm  f=0.0051  <S**2>=0.000
      10 -> 16         0.55667
      11 -> 15        -0.42437

 Excited State  12:      Singlet-B1    13.8265 eV   89.67 nm  f=0.0657  <S**2>=0.000
      10 -> 16         0.41415
      11 -> 15         0.56149
      13 -> 17        -0.10176

 Excited State  13:      Singlet-B2    14.2919 eV   86.75 nm  f=0.0009  <S**2>=0.000
      10 -> 15         0.65430
      12 -> 17         0.25717

 Excited State  14:      Singlet-A1    14.4875 eV   85.58 nm  f=0.0762  <S**2>=0.000
      11 -> 17         0.69331

 Excited State  15:      Singlet-A2    14.7351 eV   84.14 nm  f=0.0000  <S**2>=0.000
      10 -> 14         0.13904
      10 -> 17         0.68713

 Excited State  16:      Singlet-B2    15.5727 eV   79.62 nm  f=0.2510  <S**2>=0.000
       9 -> 17        -0.18631
      10 -> 15        -0.22499
      11 -> 16        -0.37364
      12 -> 17         0.51127

 Excited State  17:      Singlet-B1    16.4068 eV   75.57 nm  f=0.2425  <S**2>=0.000
       7 -> 14         0.70177

 Excited State  18:      Singlet-B2    16.4110 eV   75.55 nm  f=0.0000  <S**2>=0.000
       9 -> 14         0.68627
       9 -> 17        -0.13272

 Excited State  19:      Singlet-A1    16.6139 eV   74.63 nm  f=0.0561  <S**2>=0.000
       8 -> 14         0.67163
       9 -> 16        -0.17839

 Excited State  20:      Singlet-A2    17.0025 eV   72.92 nm  f=0.0000  <S**2>=0.000
       7 -> 16         0.69640

 Excited State  21:      Singlet-B2    17.2570 eV   71.85 nm  f=0.1865  <S**2>=0.000
       8 -> 16         0.69294

 Excited State  22:      Singlet-B1    17.4237 eV   71.16 nm  f=0.0885  <S**2>=0.000
       7 -> 17         0.10177
       8 -> 15         0.69480

 Excited State  23:      Singlet-A1    17.4340 eV   71.12 nm  f=0.1433  <S**2>=0.000
       7 -> 15        -0.39944
       8 -> 14         0.11207
       8 -> 17         0.12165
       9 -> 16         0.54664

 Excited State  24:      Singlet-A2    17.4885 eV   70.89 nm  f=0.0000  <S**2>=0.000
       9 -> 15         0.69859

 Excited State  25:      Singlet-A1    17.9714 eV   68.99 nm  f=0.0629  <S**2>=0.000
       7 -> 15         0.49798
       8 -> 14         0.16065
       8 -> 17         0.39536
       9 -> 16         0.24370

 Excited State  26:      Singlet-B1    18.6071 eV   66.63 nm  f=0.0581  <S**2>=0.000
       7 -> 17         0.67780
      13 -> 18         0.12832

 Excited State  27:      Singlet-B2    18.6519 eV   66.47 nm  f=0.4204  <S**2>=0.000
       9 -> 14         0.12949
       9 -> 17         0.66327
      11 -> 16        -0.10609
      12 -> 17         0.13088

 Excited State  28:      Singlet-A1    18.9923 eV   65.28 nm  f=0.1388  <S**2>=0.000
       6 -> 14         0.18751
       7 -> 15        -0.25859
       8 -> 17         0.53753
       9 -> 16        -0.26807
      13 -> 20        -0.11658

 Excited State  29:      Singlet-B1    19.4201 eV   63.84 nm  f=0.0447  <S**2>=0.000
       7 -> 17        -0.12470
      13 -> 18         0.68913

 Excited State  30:      Singlet-A2    20.4290 eV   60.69 nm  f=0.0000  <S**2>=0.000
      10 -> 18         0.16677
      13 -> 19         0.68373

 Excited State  31:      Singlet-B2    21.0018 eV   59.03 nm  f=0.0000  <S**2>=0.000
       6 -> 16         0.11795
      11 -> 19         0.14254
      12 -> 18         0.67831

 Excited State  32:      Singlet-A1    21.0584 eV   58.88 nm  f=0.0012  <S**2>=0.000
       6 -> 14         0.65072
       6 -> 17        -0.11056
       8 -> 17        -0.10907
       9 -> 16         0.11200
      11 -> 18         0.10136
      13 -> 20         0.11023

 Excited State  33:      Singlet-A1    21.4086 eV   57.91 nm  f=0.0871  <S**2>=0.000
       6 -> 14        -0.14261
      11 -> 18         0.66326
      12 -> 19         0.15165

 Excited State  34:      Singlet-A2    21.7074 eV   57.12 nm  f=0.0000  <S**2>=0.000
      10 -> 18         0.68256
      13 -> 19        -0.16516

 Excited State  35:      Singlet-B1    21.8379 eV   56.77 nm  f=0.0058  <S**2>=0.000
       6 -> 15         0.69518

 Excited State  36:      Singlet-B2    21.8806 eV   56.66 nm  f=0.0338  <S**2>=0.000
       6 -> 16         0.68825
      12 -> 18        -0.12619

 Excited State  37:      Singlet-A1    22.5308 eV   55.03 nm  f=0.0060  <S**2>=0.000
       6 -> 17        -0.12760
      11 -> 18        -0.10784
      12 -> 19         0.54671
      13 -> 20        -0.38858
      13 -> 23        -0.10004

 Excited State  38:      Singlet-B2    22.7405 eV   54.52 nm  f=0.0409  <S**2>=0.000
      11 -> 19         0.68230
      12 -> 18        -0.12895

 Excited State  39:      Singlet-A1    22.8550 eV   54.25 nm  f=0.1008  <S**2>=0.000
       6 -> 17         0.63109
      12 -> 19         0.23433
      13 -> 23         0.13525

 Excited State  40:      Singlet-B1    23.1321 eV   53.60 nm  f=0.1059  <S**2>=0.000
      10 -> 19         0.66179
      13 -> 21         0.16094
      13 -> 22         0.13431

 Excited State  41:      Singlet-A1    23.3906 eV   53.01 nm  f=0.1549  <S**2>=0.000
       6 -> 17        -0.19036
       8 -> 18         0.14481
       9 -> 16        -0.10915
       9 -> 19        -0.14022
      11 -> 18        -0.15171
      12 -> 19         0.32891
      13 -> 20         0.49494

 Excited State  42:      Singlet-B1    23.7524 eV   52.20 nm  f=0.0725  <S**2>=0.000
      10 -> 19        -0.19492
      11 -> 20        -0.27451
      13 -> 21         0.57224
      13 -> 22         0.21923

 Excited State  43:      Singlet-A2    23.8438 eV   52.00 nm  f=0.0000  <S**2>=0.000
      12 -> 20         0.70363

 Excited State  44:      Singlet-B1    24.2336 eV   51.16 nm  f=0.0000  <S**2>=0.000
      11 -> 20         0.60794
      13 -> 21         0.13933
      13 -> 22         0.30468

 Excited State  45:      Singlet-B2    24.6485 eV   50.30 nm  f=0.0057  <S**2>=0.000
       9 -> 18        -0.37008
      10 -> 20         0.58560

 Excited State  46:      Singlet-A1    24.9206 eV   49.75 nm  f=0.0757  <S**2>=0.000
       8 -> 18         0.31140
      11 -> 21         0.18474
      13 -> 20        -0.17261
      13 -> 23         0.57138

 Excited State  47:      Singlet-B1    24.9990 eV   49.60 nm  f=0.0019  <S**2>=0.000
       7 -> 18         0.55179
      13 -> 21         0.21417
      13 -> 22        -0.34217

 Excited State  48:      Singlet-B1    25.2806 eV   49.04 nm  f=0.2068  <S**2>=0.000
       7 -> 18         0.42333
      11 -> 20        -0.18144
      13 -> 21        -0.23786
      13 -> 22         0.45474

 Excited State  49:      Singlet-B2    25.4057 eV   48.80 nm  f=0.1107  <S**2>=0.000
       8 -> 19        -0.18237
       9 -> 18        -0.14483
      12 -> 21         0.66466

 Excited State  50:      Singlet-A1    25.5497 eV   48.53 nm  f=0.0066  <S**2>=0.000
       8 -> 18        -0.39730
       9 -> 19        -0.33094
      11 -> 21         0.44633

 Excited State  51:      Singlet-A1    25.7600 eV   48.13 nm  f=0.0158  <S**2>=0.000
       8 -> 18         0.36960
       9 -> 19         0.11426
      11 -> 21         0.46464
      11 -> 22         0.13458
      13 -> 23        -0.30396

 Excited State  52:      Singlet-A2    25.9181 eV   47.84 nm  f=0.0000  <S**2>=0.000
       7 -> 19        -0.40498
      10 -> 21         0.57694

 Excited State  53:      Singlet-B2    25.9827 eV   47.72 nm  f=0.2408  <S**2>=0.000
       8 -> 19         0.34269
       9 -> 18         0.49546
      10 -> 20         0.26963
      12 -> 21         0.21267

 Excited State  54:      Singlet-A2    26.3395 eV   47.07 nm  f=0.0000  <S**2>=0.000
       7 -> 19         0.56130
      10 -> 21         0.40481
      10 -> 22        -0.11635

 Excited State  55:      Singlet-B2    26.4735 eV   46.83 nm  f=0.0545  <S**2>=0.000
       8 -> 19         0.44882
       9 -> 18        -0.24740
      10 -> 20        -0.20286
      12 -> 22        -0.41830

 Excited State  56:      Singlet-A2    26.7021 eV   46.43 nm  f=0.0000  <S**2>=0.000
      12 -> 23         0.70335

 Excited State  57:      Singlet-B1    26.8936 eV   46.10 nm  f=0.0633  <S**2>=0.000
      11 -> 23         0.68406

 Excited State  58:      Singlet-B2    26.9545 eV   46.00 nm  f=0.0734  <S**2>=0.000
       8 -> 19         0.35982
       9 -> 18        -0.14473
      10 -> 20        -0.12456
      12 -> 22         0.56534

 Excited State  59:      Singlet-A1    27.0325 eV   45.86 nm  f=0.1599  <S**2>=0.000
       9 -> 19        -0.12609
      11 -> 21        -0.16063
      11 -> 22         0.65713

 Excited State  60:      Singlet-B2    27.2455 eV   45.51 nm  f=0.0002  <S**2>=0.000
      10 -> 23         0.70191

 Excited State  61:      Singlet-A2    27.3893 eV   45.27 nm  f=0.0000  <S**2>=0.000
       7 -> 19         0.11366
      10 -> 22         0.69529

 Excited State  62:      Singlet-A2    27.7374 eV   44.70 nm  f=0.0000  <S**2>=0.000
       9 -> 20         0.70363

 Excited State  63:      Singlet-A1    28.0191 eV   44.25 nm  f=0.0387  <S**2>=0.000
       6 -> 18        -0.24582
       7 -> 20        -0.10516
       7 -> 23        -0.21417
       8 -> 18        -0.18076
       8 -> 22        -0.10938
       9 -> 19         0.50649
      11 -> 22         0.15722
      13 -> 23         0.12195

 Excited State  64:      Singlet-B1    28.1082 eV   44.11 nm  f=0.0535  <S**2>=0.000
       7 -> 21        -0.18662
       8 -> 20         0.66456

 Excited State  65:      Singlet-A1    28.2005 eV   43.97 nm  f=0.1491  <S**2>=0.000
       7 -> 20         0.67795
       9 -> 19         0.12403

 Excited State  66:      Singlet-B2    29.1673 eV   42.51 nm  f=0.0030  <S**2>=0.000
       6 -> 19         0.12193
       9 -> 21         0.69473

 Excited State  67:      Singlet-A1    29.2359 eV   42.41 nm  f=0.0722  <S**2>=0.000
       6 -> 18        -0.17597
       8 -> 21         0.67492

 Excited State  68:      Singlet-B1    29.5101 eV   42.01 nm  f=0.0465  <S**2>=0.000
       7 -> 21         0.62563
       7 -> 22         0.19088
       8 -> 20         0.12234
       8 -> 23         0.19303

 Excited State  69:      Singlet-A1    30.0977 eV   41.19 nm  f=0.0564  <S**2>=0.000
       6 -> 18         0.58856
       7 -> 23        -0.29233
       8 -> 21         0.16254

 Excited State  70:      Singlet-A2    30.3840 eV   40.81 nm  f=0.0000  <S**2>=0.000
       9 -> 23         0.70322

 Excited State  71:      Singlet-B1    30.4056 eV   40.78 nm  f=0.0001  <S**2>=0.000
       7 -> 22        -0.47212
       8 -> 23         0.51941

 Excited State  72:      Singlet-A1    30.4217 eV   40.76 nm  f=0.0333  <S**2>=0.000
       7 -> 23        -0.37311
       8 -> 22         0.58066

 Excited State  73:      Singlet-B2    30.5503 eV   40.58 nm  f=0.0020  <S**2>=0.000
       9 -> 22         0.69997

 Excited State  74:      Singlet-B1    30.7232 eV   40.36 nm  f=0.1879  <S**2>=0.000
       6 -> 20         0.10013
       7 -> 21        -0.23517
       7 -> 22         0.47800
       8 -> 20        -0.12581
       8 -> 23         0.42593

 Excited State  75:      Singlet-B2    30.9595 eV   40.05 nm  f=0.1522  <S**2>=0.000
       6 -> 19         0.68200
       9 -> 21        -0.12280

 Excited State  76:      Singlet-A1    32.3632 eV   38.31 nm  f=0.0097  <S**2>=0.000
       6 -> 18         0.17016
       6 -> 21         0.13082
       6 -> 22        -0.25271
       7 -> 23         0.42507
       8 -> 18        -0.10758
       8 -> 22         0.33692
       9 -> 19         0.17947

 Excited State  77:      Singlet-B1    32.4255 eV   38.24 nm  f=0.0043  <S**2>=0.000
       6 -> 20         0.69018

 Excited State  78:      Singlet-A1    33.4252 eV   37.09 nm  f=0.0070  <S**2>=0.000
       6 -> 21         0.68317
       6 -> 22         0.13655

 Excited State  79:      Singlet-B2    34.0034 eV   36.46 nm  f=0.0000  <S**2>=0.000
       5 -> 14         0.69751

 Excited State  80:      Singlet-B1    34.7253 eV   35.70 nm  f=0.0468  <S**2>=0.000
       6 -> 23         0.69829

 Excited State  81:      Singlet-A1    34.9606 eV   35.46 nm  f=0.0619  <S**2>=0.000
       5 -> 16         0.63424
       6 -> 22         0.28274

 Excited State  82:      Singlet-A2    35.0736 eV   35.35 nm  f=0.0000  <S**2>=0.000
       5 -> 15         0.70449

 Excited State  83:      Singlet-A1    35.6128 eV   34.81 nm  f=0.0005  <S**2>=0.000
       4 -> 14         0.67668
       6 -> 22         0.17111

 Excited State  84:      Singlet-A1    35.8978 eV   34.54 nm  f=0.0210  <S**2>=0.000
       4 -> 14        -0.16007
       4 -> 17         0.22264
       5 -> 16        -0.25123
       6 -> 22         0.52895
       7 -> 23         0.14824

 Excited State  85:      Singlet-B2    35.9157 eV   34.52 nm  f=0.0105  <S**2>=0.000
       4 -> 16        -0.10097
       5 -> 14         0.10143
       5 -> 17         0.60044
      13 -> 24         0.33669

 Excited State  86:      Singlet-B1    35.9339 eV   34.50 nm  f=0.0136  <S**2>=0.000
      13 -> 25         0.69513

 Excited State  87:      Singlet-B2    36.4438 eV   34.02 nm  f=0.0143  <S**2>=0.000
       4 -> 16         0.65808
      13 -> 24         0.23667

 Excited State  88:      Singlet-B2    36.5851 eV   33.89 nm  f=0.2454  <S**2>=0.000
       4 -> 16        -0.15770
       5 -> 17        -0.30093
      12 -> 25        -0.37607
      13 -> 24         0.48092

 Excited State  89:      Singlet-B1    36.7764 eV   33.71 nm  f=0.0001  <S**2>=0.000
       4 -> 15         0.69975

 Excited State  90:      Singlet-B1    37.4407 eV   33.11 nm  f=0.0144  <S**2>=0.000
      12 -> 24         0.70129

 Excited State  91:      Singlet-A2    37.6674 eV   32.92 nm  f=0.0000  <S**2>=0.000
      10 -> 25        -0.12645
      11 -> 24         0.68682

 Excited State  92:      Singlet-A2    37.7850 eV   32.81 nm  f=0.0000  <S**2>=0.000
      10 -> 25         0.64078
      11 -> 24         0.14566
      13 -> 26         0.22630

 Excited State  93:      Singlet-A1    37.8383 eV   32.77 nm  f=0.0114  <S**2>=0.000
       4 -> 14         0.10574
       4 -> 17         0.59345
       6 -> 22        -0.10014
      10 -> 24         0.28483
      11 -> 25         0.13230

 Excited State  94:      Singlet-A1    37.9389 eV   32.68 nm  f=0.0060  <S**2>=0.000
      10 -> 24        -0.43172
      11 -> 25         0.54285

 Excited State  95:      Singlet-A2    38.0461 eV   32.59 nm  f=0.0000  <S**2>=0.000
      10 -> 25        -0.23798
      10 -> 27        -0.23593
      13 -> 26         0.61468

 Excited State  96:      Singlet-B1    38.5844 eV   32.13 nm  f=0.0224  <S**2>=0.000
       7 -> 27        -0.10037
      10 -> 26        -0.39322
      13 -> 27         0.57554

 Excited State  97:      Singlet-B2    39.0659 eV   31.74 nm  f=0.4871  <S**2>=0.000
       4 -> 16        -0.13832
       5 -> 17        -0.11581
       9 -> 27        -0.14896
      11 -> 26        -0.38124
      12 -> 25         0.47098
      13 -> 24         0.20905

 Excited State  98:      Singlet-A1    39.0757 eV   31.73 nm  f=0.0221  <S**2>=0.000
      11 -> 27        -0.32293
      12 -> 26         0.60021

 Excited State  99:      Singlet-B2    39.3263 eV   31.53 nm  f=0.2301  <S**2>=0.000
       8 -> 26         0.16377
      11 -> 26        -0.37749
      12 -> 25        -0.22449
      12 -> 27         0.49572
      13 -> 24        -0.11791

 Excited State 100:      Singlet-A1    40.1444 eV   30.88 nm  f=0.2391  <S**2>=0.000
       4 -> 17        -0.24923
       8 -> 25         0.19073
       8 -> 27         0.10494
       9 -> 26         0.14756
      10 -> 24         0.38859
      11 -> 25         0.33639
      11 -> 27         0.10487
      12 -> 26         0.17101

 Excited State 101:      Singlet-B1    40.8458 eV   30.35 nm  f=0.0116  <S**2>=0.000
       7 -> 25        -0.10949
       9 -> 24         0.10250
      10 -> 26         0.55735
      13 -> 27         0.39637

 Excited State 102:      Singlet-B2    41.2193 eV   30.08 nm  f=0.0254  <S**2>=0.000
       7 -> 24        -0.17641
       9 -> 25         0.66864

 Excited State 103:      Singlet-A2    41.3167 eV   30.01 nm  f=0.0000  <S**2>=0.000
       7 -> 26         0.16636
      10 -> 27         0.63412
      13 -> 26         0.25231

 Excited State 104:      Singlet-B1    41.4232 eV   29.93 nm  f=0.0007  <S**2>=0.000
       7 -> 25        -0.30171
       9 -> 24         0.61251
      10 -> 26        -0.12772

 Excited State 105:      Singlet-A2    41.4749 eV   29.89 nm  f=0.0000  <S**2>=0.000
       8 -> 24         0.69510

 Excited State 106:      Singlet-A1    41.4911 eV   29.88 nm  f=0.0161  <S**2>=0.000
       8 -> 25        -0.27087
       9 -> 26         0.10501
      11 -> 25        -0.10908
      11 -> 27         0.55368
      12 -> 26         0.25557
      12 -> 28         0.13167

 Excited State 107:      Singlet-B2    41.7806 eV   29.68 nm  f=0.2186  <S**2>=0.000
       7 -> 24         0.30357
      10 -> 30         0.11360
      11 -> 26         0.39796
      12 -> 25         0.10146
      12 -> 27         0.43536
      13 -> 24         0.12345

 Excited State 108:      Singlet-B1    41.8818 eV   29.60 nm  f=0.0930  <S**2>=0.000
       7 -> 25         0.61033
       9 -> 24         0.31411
      10 -> 28        -0.11449

 Excited State 109:      Singlet-A1    42.2991 eV   29.31 nm  f=0.0001  <S**2>=0.000
       8 -> 25         0.56630
       9 -> 26        -0.15327
      10 -> 24        -0.13752
      11 -> 27         0.22282
      12 -> 26         0.13858
      13 -> 30        -0.13515

 Excited State 110:      Singlet-B2    42.5853 eV   29.11 nm  f=0.0199  <S**2>=0.000
       5 -> 18         0.58081
       7 -> 24         0.32290
      11 -> 26        -0.11992
      12 -> 27        -0.10488

 Excited State 111:      Singlet-B2    42.6382 eV   29.08 nm  f=0.0061  <S**2>=0.000
       5 -> 18        -0.39106
       7 -> 24         0.48286
       9 -> 25         0.14294
       9 -> 27         0.13193
      11 -> 26        -0.13153
      12 -> 25        -0.10264
      12 -> 27        -0.13140
      13 -> 29         0.11873

 Excited State 112:      Singlet-A1    44.0989 eV   28.12 nm  f=0.0023  <S**2>=0.000
       4 -> 18        -0.11758
       9 -> 26         0.51440
      10 -> 24        -0.10846
      10 -> 29         0.17005
      11 -> 27        -0.12051
      12 -> 28         0.10039
      13 -> 30        -0.35374

 Excited State 113:      Singlet-B2    44.1758 eV   28.07 nm  f=0.0133  <S**2>=0.000
       8 -> 26         0.47271
       9 -> 27         0.30342
      10 -> 30         0.14882
      11 -> 28        -0.10997
      12 -> 27        -0.11088
      13 -> 29        -0.33807

 Excited State 114:      Singlet-A2    44.2307 eV   28.03 nm  f=0.0000  <S**2>=0.000
       7 -> 26        -0.35939
      10 -> 25        -0.10102
      13 -> 28         0.59092

 Excited State 115:      Singlet-A1    44.3556 eV   27.95 nm  f=0.0002  <S**2>=0.000
       4 -> 18        -0.31689
       5 -> 19         0.62099

 Excited State 116:      Singlet-A2    44.5896 eV   27.81 nm  f=0.0000  <S**2>=0.000
       7 -> 26         0.57588
      10 -> 27        -0.17923
      13 -> 28         0.36007

 Excited State 117:      Singlet-B2    44.7248 eV   27.72 nm  f=0.0085  <S**2>=0.000
       8 -> 26         0.45211
       9 -> 27        -0.28273
      11 -> 28        -0.12719
      13 -> 29         0.41237

 Excited State 118:      Singlet-A1    44.9532 eV   27.58 nm  f=0.0153  <S**2>=0.000
       4 -> 18         0.57807
       5 -> 19         0.28597
       8 -> 25        -0.10408
      13 -> 30        -0.15005

 Excited State 119:      Singlet-A1    45.0406 eV   27.53 nm  f=0.0638  <S**2>=0.000
       4 -> 18         0.15847
       8 -> 25         0.12029
       8 -> 27        -0.35439
       9 -> 26         0.29638
      12 -> 28         0.29082
      13 -> 30         0.37273

 Excited State 120:      Singlet-B2    45.2967 eV   27.37 nm  f=0.0592  <S**2>=0.000
       8 -> 26        -0.15827

 The electronic state is 1-A1.
 Alpha  occ. eigenvalues --  -24.82037 -24.82029 -10.45572  -1.34236  -1.28056
 Alpha  occ. eigenvalues --   -0.79231  -0.64084  -0.63902  -0.63372  -0.51228
 Alpha  occ. eigenvalues --   -0.49893  -0.49083  -0.42594
 Alpha virt. eigenvalues --    0.15585   0.19865   0.21146   0.25688   0.51579
 Alpha virt. eigenvalues --    0.56097   0.60149   0.64505   0.68656   0.69313
 Alpha virt. eigenvalues --    1.11980   1.12684   1.19680   1.23445   1.42420

 Mulliken charges:
               1
     1  F   -0.247957
     2  C    0.435042
     3  F   -0.247957
     4  H    0.030435
     5  H    0.030435
 Sum of Mulliken charges =  -0.00000

 Dipole moment (field-independent basis, Debye):
    X=              0.0000    Y=             -0.0000    Z=              1.8597  Tot=              1.8597
 Quadrupole moment (field-independent basis, Debye-Ang):
   XX=            -15.0326   YY=            -18.5731   ZZ=            -14.9488
   XY=             -0.0000   XZ=             -0.0000   YZ=              0.0000

 Normal termination of Gaussian 16 at Sat Aug 14 07:22:57 2021.
