 Gaussian 16, Revision C.01,
 Gaussian 16:  EM64L-G16RevC.01  3-Jul-2019

 ----------------------------------------------------------------------
 #P TD(Nstates=10000) wB97XD/def2SVP SCF(maxcycles=100) Int(Grid=ultraf
 ine)
 ----------------------------------------------------------------------

 ---------------------
 xGDB7_00001_tier4.com
 ---------------------
 Symbolic Z-matrix:
 Charge =  0 Multiplicity = 1

                         Standard orientation:
 ---------------------------------------------------------------------
 Center     Atomic      Atomic             Coordinates (Angstroms)
 Number     Number       Type             X           Y           Z
 ---------------------------------------------------------------------
      1          8           0        0.000000   -0.000000    0.119106
      2          1           0        0.000000    0.754930   -0.476424
      3          1           0       -0.000000   -0.754930   -0.476424
 ---------------------------------------------------------------------

 SCF Done:  E(RwB97XD) =  -76.3370011480     A.U. after   11 cycles

 Excitation energies and oscillator strengths:

 Excited State   1:      Singlet-B1     8.1174 eV  152.74 nm  f=0.0198  <S**2>=0.000
       5 ->  6         0.70675
 This state for optimization and/or second-order correction.
 Total Energy, E(TD-HF/TD-DFT) =  -76.0386923873
 Copying the excited state density for this state as the 1-particle RhoCI density.

 Excited State   2:      Singlet-A2    10.0756 eV  123.05 nm  f=0.0000  <S**2>=0.000
       5 ->  7         0.70535

 Excited State   3:      Singlet-A1    10.4804 eV  118.30 nm  f=0.0861  <S**2>=0.000
       4 ->  6         0.70404

 Excited State   4:      Singlet-B2    12.5595 eV   98.72 nm  f=0.0721  <S**2>=0.000
       4 ->  7         0.70457

 Excited State   5:      Singlet-B2    14.3190 eV   86.59 nm  f=0.2698  <S**2>=0.000
       3 ->  6         0.70484

 Excited State   6:      Singlet-A1    17.3369 eV   71.51 nm  f=0.1279  <S**2>=0.000
       3 ->  7         0.69641

 Excited State   7:      Singlet-A2    21.2356 eV   58.39 nm  f=0.0000  <S**2>=0.000
       5 ->  8         0.70562

 Excited State   8:      Singlet-B1    23.3341 eV   53.13 nm  f=0.0592  <S**2>=0.000
       5 ->  9         0.70455

 Excited State   9:      Singlet-B2    24.4742 eV   50.66 nm  f=0.1317  <S**2>=0.000
       3 ->  9         0.13965
       4 ->  8         0.68929

 Excited State  10:      Singlet-A1    25.4793 eV   48.66 nm  f=0.0020  <S**2>=0.000
       2 ->  6        -0.14390
       3 ->  8         0.10119
       4 ->  9         0.68065

 Excited State  11:      Singlet-A1    27.8023 eV   44.59 nm  f=0.0037  <S**2>=0.000
       2 ->  6         0.66437
       3 ->  8         0.14795
       4 ->  9         0.10432
       5 -> 11         0.15350

 Excited State  12:      Singlet-A1    28.9596 eV   42.81 nm  f=0.2497  <S**2>=0.000
       3 ->  8         0.66249
       4 ->  9        -0.10002
       5 -> 11        -0.18774

 Excited State  13:      Singlet-B2    29.6664 eV   41.79 nm  f=0.0195  <S**2>=0.000
       2 ->  7         0.69838

 Excited State  14:      Singlet-B1    30.3908 eV   40.80 nm  f=0.0013  <S**2>=0.000
       5 -> 10         0.70287

 Excited State  15:      Singlet-B2    30.6905 eV   40.40 nm  f=0.3274  <S**2>=0.000
       3 ->  9         0.68043
       4 ->  8        -0.12681

 Excited State  16:      Singlet-A1    31.5249 eV   39.33 nm  f=0.0467  <S**2>=0.000
       2 ->  6        -0.10809
       4 -> 10        -0.47198
       5 -> 11         0.49979

 Excited State  17:      Singlet-B1    32.4591 eV   38.20 nm  f=0.0030  <S**2>=0.000
       4 -> 11         0.70482

 Excited State  18:      Singlet-A2    32.8225 eV   37.77 nm  f=0.0000  <S**2>=0.000
       5 -> 12         0.70656

 Excited State  19:      Singlet-B2    34.9854 eV   35.44 nm  f=0.1017  <S**2>=0.000
       4 -> 12         0.70166

 Excited State  20:      Singlet-B1    35.7515 eV   34.68 nm  f=0.2770  <S**2>=0.000
       5 -> 13         0.70534

 Excited State  21:      Singlet-A2    36.5025 eV   33.97 nm  f=0.0000  <S**2>=0.000
       3 -> 11         0.70708

 Excited State  22:      Singlet-A1    36.5273 eV   33.94 nm  f=0.0307  <S**2>=0.000
       3 ->  8        -0.10132
       3 -> 12         0.43313
       4 -> 10        -0.42552
       5 -> 11        -0.30089

 Excited State  23:      Singlet-B2    36.8338 eV   33.66 nm  f=0.1526  <S**2>=0.000
       3 -> 10         0.69551

 Excited State  24:      Singlet-A1    37.8668 eV   32.74 nm  f=0.1764  <S**2>=0.000
       3 -> 12        -0.11039
       4 -> 13         0.69570

 Excited State  25:      Singlet-B2    41.1188 eV   30.15 nm  f=0.0043  <S**2>=0.000
       2 ->  8         0.66061
       3 -> 13        -0.17191
       5 -> 14        -0.17449

 Excited State  26:      Singlet-B2    41.6750 eV   29.75 nm  f=0.0033  <S**2>=0.000
       2 ->  8         0.22935
       3 -> 13         0.60517
       5 -> 14         0.28098

 Excited State  27:      Singlet-A1    41.8287 eV   29.64 nm  f=0.0803  <S**2>=0.000
       2 ->  9         0.55772
       3 -> 12        -0.37331
       4 -> 10        -0.14604
       5 -> 11        -0.12235

 Excited State  28:      Singlet-B1    43.8255 eV   28.29 nm  f=0.1547  <S**2>=0.000
       3 -> 14        -0.11098
       5 -> 15         0.69413

 Excited State  29:      Singlet-B2    43.9884 eV   28.19 nm  f=0.7546  <S**2>=0.000
       3 -> 13        -0.31213
       5 -> 14         0.61209

 Excited State  30:      Singlet-A2    44.3280 eV   27.97 nm  f=0.0000  <S**2>=0.000
       4 -> 14         0.70699

 Excited State  31:      Singlet-A1    46.1126 eV   26.89 nm  f=0.0341  <S**2>=0.000
       2 ->  9         0.35580
       2 -> 10        -0.12392
       2 -> 13        -0.18795
       3 -> 12         0.33053
       4 -> 10         0.21454
       4 -> 15         0.27402
       5 -> 11         0.22326
       5 -> 16        -0.16073

 Excited State  32:      Singlet-A1    46.4691 eV   26.68 nm  f=0.0895  <S**2>=0.000
       2 ->  9        -0.19920
       3 -> 12        -0.17258
       4 -> 15         0.53574
       5 -> 11        -0.11019
       5 -> 16        -0.33103

 Excited State  33:      Singlet-B1    48.9610 eV   25.32 nm  f=0.1765  <S**2>=0.000
       3 -> 14         0.60278
       4 -> 16         0.35866

 Excited State  34:      Singlet-A1    49.1532 eV   25.22 nm  f=1.0959  <S**2>=0.000
       2 -> 10        -0.31780
       4 -> 15         0.31211
       5 -> 16         0.53906

 Excited State  35:      Singlet-B1    49.9005 eV   24.85 nm  f=0.3978  <S**2>=0.000
       2 -> 11         0.67651
       4 -> 16        -0.19857

 Excited State  36:      Singlet-B2    49.9570 eV   24.82 nm  f=0.2463  <S**2>=0.000
       3 -> 15         0.70188

 Excited State  37:      Singlet-A1    50.4073 eV   24.60 nm  f=0.0214  <S**2>=0.000
       2 -> 10         0.61499
       4 -> 15         0.17838
       5 -> 16         0.26210

 Excited State  38:      Singlet-B1    51.4572 eV   24.09 nm  f=0.8387  <S**2>=0.000
       2 -> 11         0.19202
       3 -> 14        -0.34447
       4 -> 16         0.56956
       5 -> 15        -0.11164

 Excited State  39:      Singlet-B2    52.6813 eV   23.53 nm  f=0.0642  <S**2>=0.000
       2 -> 12         0.70442

 Excited State  40:      Singlet-A2    53.6690 eV   23.10 nm  f=0.0000  <S**2>=0.000
       3 -> 16         0.69042
       5 -> 17        -0.15148

 Excited State  41:      Singlet-A2    54.3941 eV   22.79 nm  f=0.0000  <S**2>=0.000
       3 -> 16         0.15145
       5 -> 17         0.69062

 Excited State  42:      Singlet-B2    56.6929 eV   21.87 nm  f=0.0184  <S**2>=0.000
       4 -> 17         0.70639

 Excited State  43:      Singlet-A1    57.1826 eV   21.68 nm  f=0.0424  <S**2>=0.000
       2 -> 13         0.66249
       3 -> 12         0.11589
       4 -> 10         0.11099
       5 -> 11         0.12265

 Excited State  44:      Singlet-A1    60.5921 eV   20.46 nm  f=0.0269  <S**2>=0.000
       3 -> 17         0.70611

 Excited State  45:      Singlet-A2    61.6767 eV   20.10 nm  f=0.0000  <S**2>=0.000
       2 -> 14         0.70681

 Excited State  46:      Singlet-A1    63.3944 eV   19.56 nm  f=0.0257  <S**2>=0.000
       2 -> 15         0.70293

 Excited State  47:      Singlet-A2    65.3920 eV   18.96 nm  f=0.0000  <S**2>=0.000
       5 -> 18         0.70661

 Excited State  48:      Singlet-B1    66.9679 eV   18.51 nm  f=0.0188  <S**2>=0.000
       2 -> 16         0.68923
       5 -> 19        -0.15710

 Excited State  49:      Singlet-B1    68.0536 eV   18.22 nm  f=0.2466  <S**2>=0.000
       2 -> 16         0.15629
       5 -> 19         0.68227

 Excited State  50:      Singlet-B2    68.3275 eV   18.15 nm  f=0.0070  <S**2>=0.000
       4 -> 18         0.70105

 Excited State  51:      Singlet-A1    69.0790 eV   17.95 nm  f=0.0028  <S**2>=0.000
       3 -> 18         0.10711
       4 -> 19         0.69707

 Excited State  52:      Singlet-A1    73.0039 eV   16.98 nm  f=0.0141  <S**2>=0.000
       3 -> 18         0.68994
       4 -> 19        -0.10046

 Excited State  53:      Singlet-B2    73.1845 eV   16.94 nm  f=0.0031  <S**2>=0.000
       2 -> 17        -0.48248
       3 -> 19         0.51216

 Excited State  54:      Singlet-B2    73.3691 eV   16.90 nm  f=0.0224  <S**2>=0.000
       2 -> 17         0.51648
       3 -> 19         0.47830

 Excited State  55:      Singlet-B2    85.2278 eV   14.55 nm  f=0.0147  <S**2>=0.000
       2 -> 18         0.70418

 Excited State  56:      Singlet-A1    86.8473 eV   14.28 nm  f=0.0016  <S**2>=0.000
       2 -> 19         0.68902
       5 -> 20        -0.14644

 Excited State  57:      Singlet-A1    87.0966 eV   14.24 nm  f=0.2771  <S**2>=0.000
       2 -> 19         0.14877
       4 -> 22        -0.19352
       5 -> 20         0.65914

 Excited State  58:      Singlet-B2    88.4937 eV   14.01 nm  f=0.2841  <S**2>=0.000
       3 -> 22         0.10797
       5 -> 21         0.68858

 Excited State  59:      Singlet-A2    88.5330 eV   14.00 nm  f=0.0000  <S**2>=0.000
       4 -> 21         0.70659

 Excited State  60:      Singlet-B1    88.6610 eV   13.98 nm  f=0.1081  <S**2>=0.000
       3 -> 21        -0.18537
       4 -> 20         0.66334
       5 -> 22         0.13543

 Excited State  61:      Singlet-A2    91.2752 eV   13.58 nm  f=0.0000  <S**2>=0.000
       3 -> 20         0.70682

 Excited State  62:      Singlet-B1    91.4056 eV   13.56 nm  f=0.0103  <S**2>=0.000
       3 -> 21         0.22211
       5 -> 22         0.66696

 Excited State  63:      Singlet-B1    94.1765 eV   13.17 nm  f=0.1536  <S**2>=0.000
       3 -> 21         0.61450
       4 -> 20         0.17730
       5 -> 22        -0.17578
       5 -> 23         0.23914

 Excited State  64:      Singlet-A1    96.5153 eV   12.85 nm  f=0.2893  <S**2>=0.000
       4 -> 22         0.67370
       5 -> 20         0.18552

 Excited State  65:      Singlet-B2    98.3928 eV   12.60 nm  f=0.0526  <S**2>=0.000
       3 -> 22         0.69210

 Excited State  66:      Singlet-A1   102.2480 eV   12.13 nm  f=0.0279  <S**2>=0.000
       4 -> 23         0.70395

 Excited State  67:      Singlet-B1   102.5147 eV   12.09 nm  f=0.4605  <S**2>=0.000
       2 -> 20        -0.10635
       3 -> 21        -0.18739
       4 -> 20        -0.13903
       5 -> 23         0.65266

 Excited State  68:      Singlet-B1   105.4329 eV   11.76 nm  f=0.0353  <S**2>=0.000
       2 -> 20         0.69886

 Excited State  69:      Singlet-A2   106.3158 eV   11.66 nm  f=0.0000  <S**2>=0.000
       2 -> 21         0.70542

 Excited State  70:      Singlet-B2   106.6861 eV   11.62 nm  f=0.0394  <S**2>=0.000
       3 -> 23         0.68569
       4 -> 24        -0.15573

 Excited State  71:      Singlet-A2   108.5971 eV   11.42 nm  f=0.0000  <S**2>=0.000
       5 -> 24         0.70572

 Excited State  72:      Singlet-A1   111.5174 eV   11.12 nm  f=0.0051  <S**2>=0.000
       2 -> 22         0.70466

 Excited State  73:      Singlet-B2   112.5443 eV   11.02 nm  f=0.1987  <S**2>=0.000
       3 -> 23         0.14404
       4 -> 24         0.68412

 Excited State  74:      Singlet-A1   116.4126 eV   10.65 nm  f=0.0931  <S**2>=0.000
       3 -> 24         0.69981

 Excited State  75:      Singlet-A1   119.6404 eV   10.36 nm  f=0.0083  <S**2>=0.000
       2 -> 23         0.70659

 Excited State  76:      Singlet-B2   128.5647 eV    9.64 nm  f=0.0048  <S**2>=0.000
       2 -> 24         0.70699

 The electronic state is 1-A1.
 Alpha  occ. eigenvalues --  -19.24178  -1.08231  -0.60209  -0.45668  -0.38067
 Alpha virt. eigenvalues --    0.13763   0.21532   0.65037   0.71569   1.01049
 Alpha virt. eigenvalues --    1.01618   1.09821   1.18067   1.43007   1.48433
 Alpha virt. eigenvalues --    1.62915   1.87606   2.30000   2.34530   3.05072

 Mulliken charges:
               1
     1  O   -0.315705
     2  H    0.157853
     3  H    0.157853
 Sum of Mulliken charges =  -0.00000

 Dipole moment (field-independent basis, Debye):
    X=             -0.0000    Y=             -0.0000    Z=             -2.0442  Tot=              2.0442
 Quadrupole moment (field-independent basis, Debye-Ang):
   XX=             -6.9900   YY=             -4.2655   ZZ=             -5.9107
   XY=              0.0000   XZ=              0.0000   YZ=              0.0000

 Normal termination of Gaussian 16 at Sat Aug 14 07:22:37 2021.
