 Gaussian 16, Revision C.01,
 Gaussian 16:  EM64L-G16RevC.01  3-Jul-2019

 ----------------------------------------------------------------------
 #P TD(Nstates=10000) wB97XD/def2SVP SCF(maxcycles=100) Int(Grid=ultraf
 ine)
 ----------------------------------------------------------------------

 ---------------------
 xGDB7_00001_tier4.com
 ---------------------
 Symbolic Z-matrix:
 Charge =  0 Multiplicity = 1

                         Standard orientation:
 ---------------------------------------------------------------------
 Center     Atomic      Atomic             Coordinates (Angstroms)
 Number     Number       Type             X           Y           Z
 ---------------------------------------------------------------------
      1          6           0       -0.620492    0.000001    0.000000
      2          9           0        0.745429   -0.000000   -0.000000
      3          1           0       -0.995303   -0.422238    0.946037
      4          1           0       -0.995305   -0.608181   -0.838684
      5          1           0       -0.995300    1.030416   -0.107353
 ---------------------------------------------------------------------

 SCF Done:  E(RwB97XD) =  -139.590950255     A.U. after   12 cycles

 Excitation energies and oscillator strengths:

 Excited State   1:      Singlet-A     10.5249 eV  117.80 nm  f=0.0848  <S**2>=0.000
       8 -> 10         0.63940
       8 -> 11        -0.28463
 This state for optimization and/or second-order correction.
 Total Energy, E(TD-HF/TD-DFT) =  -139.204166890
 Copying the excited state density for this state as the 1-particle RhoCI density.

 Excited State   2:      Singlet-A     10.5249 eV  117.80 nm  f=0.0848  <S**2>=0.000
       9 -> 10         0.63941
       9 -> 11        -0.28461

 Excited State   3:      Singlet-A     11.1864 eV  110.83 nm  f=0.0480  <S**2>=0.000
       8 -> 10         0.24090
       8 -> 11         0.54471
       9 -> 10        -0.15119
       9 -> 11        -0.34187

 Excited State   4:      Singlet-A     11.1864 eV  110.83 nm  f=0.0479  <S**2>=0.000
       8 -> 10         0.15120
       8 -> 11         0.34188
       9 -> 10         0.24088
       9 -> 11         0.54472

 Excited State   5:      Singlet-A     12.0033 eV  103.29 nm  f=0.0000  <S**2>=0.000
       8 -> 12        -0.22279
       8 -> 13         0.44500
       9 -> 12         0.44511
       9 -> 13         0.22272

 Excited State   6:      Singlet-A     12.1499 eV  102.05 nm  f=0.1263  <S**2>=0.000
       8 -> 12         0.32049
       8 -> 13         0.38022
       9 -> 12        -0.38010
       9 -> 13         0.32055

 Excited State   7:      Singlet-A     12.1499 eV  102.05 nm  f=0.1263  <S**2>=0.000
       8 -> 12         0.38018
       8 -> 13        -0.32053
       9 -> 12         0.32052
       9 -> 13         0.38015

 Excited State   8:      Singlet-A     12.7855 eV   96.97 nm  f=0.1419  <S**2>=0.000
       8 -> 12        -0.44009
       8 -> 13        -0.22028
       9 -> 12        -0.22027
       9 -> 13         0.44010

 Excited State   9:      Singlet-A     14.4189 eV   85.99 nm  f=0.1638  <S**2>=0.000
       6 -> 10         0.66431
       6 -> 11        -0.21929

 Excited State  10:      Singlet-A     14.4190 eV   85.99 nm  f=0.1638  <S**2>=0.000
       7 -> 10         0.66432
       7 -> 11        -0.21927

 Excited State  11:      Singlet-A     14.9873 eV   82.73 nm  f=0.0002  <S**2>=0.000
       5 -> 10         0.68679

 Excited State  12:      Singlet-A     15.1491 eV   81.84 nm  f=0.0028  <S**2>=0.000
       6 -> 10         0.16456
       6 -> 11         0.49095
       7 -> 10        -0.14456
       7 -> 11        -0.43130

 Excited State  13:      Singlet-A     15.1492 eV   81.84 nm  f=0.0028  <S**2>=0.000
       6 -> 10         0.14457
       6 -> 11         0.43133
       7 -> 10         0.16454
       7 -> 11         0.49096

 Excited State  14:      Singlet-A     15.8062 eV   78.44 nm  f=0.0000  <S**2>=0.000
       6 -> 12        -0.18254
       6 -> 13         0.46282
       7 -> 12         0.46295
       7 -> 13         0.18250

 Excited State  15:      Singlet-A     16.0000 eV   77.49 nm  f=0.1751  <S**2>=0.000
       6 -> 11        -0.11426
       6 -> 13         0.47783
       7 -> 12        -0.47773

 Excited State  16:      Singlet-A     16.0000 eV   77.49 nm  f=0.1751  <S**2>=0.000
       6 -> 12         0.47778
       7 -> 11         0.11433
       7 -> 13         0.47780

 Excited State  17:      Singlet-A     16.0397 eV   77.30 nm  f=0.5413  <S**2>=0.000
       5 -> 10         0.13377
       5 -> 11         0.57460
       6 -> 12         0.23338
       7 -> 13        -0.23340

 Excited State  18:      Singlet-A     16.1359 eV   76.84 nm  f=0.0240  <S**2>=0.000
       5 -> 12         0.69224

 Excited State  19:      Singlet-A     16.1359 eV   76.84 nm  f=0.0240  <S**2>=0.000
       5 -> 13         0.69225

 Excited State  20:      Singlet-A     17.0171 eV   72.86 nm  f=0.0656  <S**2>=0.000
       4 -> 10         0.11249
       5 -> 11        -0.35083
       6 -> 12         0.37810
       6 -> 13         0.14909
       7 -> 12         0.14909
       7 -> 13        -0.37809

 Excited State  21:      Singlet-A     20.2575 eV   61.20 nm  f=0.0000  <S**2>=0.000
       8 -> 14         0.49710
       9 -> 15        -0.49704

 Excited State  22:      Singlet-A     20.4811 eV   60.54 nm  f=0.0205  <S**2>=0.000
       8 -> 16         0.64868
       9 -> 16        -0.26121

 Excited State  23:      Singlet-A     20.4811 eV   60.54 nm  f=0.0205  <S**2>=0.000
       8 -> 16         0.26119
       9 -> 16         0.64869

 Excited State  24:      Singlet-A     20.6782 eV   59.96 nm  f=0.0125  <S**2>=0.000
       4 -> 10         0.64089
       8 -> 15         0.19345
       9 -> 14         0.19381

 Excited State  25:      Singlet-A     20.7655 eV   59.71 nm  f=0.1026  <S**2>=0.000
       8 -> 15         0.48462
       9 -> 14        -0.48459

 Excited State  26:      Singlet-A     20.7655 eV   59.71 nm  f=0.1026  <S**2>=0.000
       8 -> 14         0.48456
       9 -> 15         0.48463

 Excited State  27:      Singlet-A     21.2289 eV   58.40 nm  f=0.2053  <S**2>=0.000
       4 -> 10        -0.20075
       4 -> 11         0.35416
       5 -> 11        -0.14299
       5 -> 16        -0.14314
       8 -> 15         0.37697
       9 -> 14         0.37686

 Excited State  28:      Singlet-A     21.6277 eV   57.33 nm  f=0.0056  <S**2>=0.000
       4 -> 10         0.15248
       4 -> 11         0.59793
       5 -> 16         0.15055
       8 -> 15        -0.19850
       9 -> 14        -0.19846

 Excited State  29:      Singlet-A     21.9151 eV   56.57 nm  f=0.0029  <S**2>=0.000
       4 -> 12         0.68675

 Excited State  30:      Singlet-A     21.9151 eV   56.57 nm  f=0.0029  <S**2>=0.000
       4 -> 13         0.68675

 Excited State  31:      Singlet-A     24.1027 eV   51.44 nm  f=0.0000  <S**2>=0.000
       6 -> 14         0.49176
       7 -> 15        -0.49167

 Excited State  32:      Singlet-A     24.2273 eV   51.18 nm  f=0.0173  <S**2>=0.000
       5 -> 15        -0.13094
       6 -> 14        -0.11212
       6 -> 16         0.63242
       7 -> 15        -0.11221
       7 -> 16        -0.17004
       8 -> 17         0.10907

 Excited State  33:      Singlet-A     24.2274 eV   51.18 nm  f=0.0173  <S**2>=0.000
       5 -> 14        -0.13089
       6 -> 15        -0.11222
       6 -> 16         0.16999
       7 -> 14         0.11196
       7 -> 16         0.63246
       9 -> 17         0.10907

 Excited State  34:      Singlet-A     24.3444 eV   50.93 nm  f=0.1188  <S**2>=0.000
       5 -> 14         0.52462
       6 -> 15         0.28024
       7 -> 14        -0.28039
       7 -> 16         0.20817

 Excited State  35:      Singlet-A     24.3444 eV   50.93 nm  f=0.1188  <S**2>=0.000
       5 -> 15         0.52461
       6 -> 14         0.28025
       6 -> 16         0.20830
       7 -> 15         0.28030

 Excited State  36:      Singlet-A     24.5740 eV   50.45 nm  f=0.0016  <S**2>=0.000
       6 -> 15         0.48756
       7 -> 14         0.48775

 Excited State  37:      Singlet-A     24.6702 eV   50.26 nm  f=0.0626  <S**2>=0.000
       5 -> 14         0.39632
       5 -> 15         0.18653
       6 -> 14        -0.22023
       6 -> 15        -0.25543
       7 -> 14         0.25526
       7 -> 15        -0.22026
       8 -> 18         0.13959
       9 -> 17        -0.12804
       9 -> 19         0.13960

 Excited State  38:      Singlet-A     24.6703 eV   50.26 nm  f=0.0626  <S**2>=0.000
       5 -> 14        -0.18654
       5 -> 15         0.39631
       6 -> 14        -0.25531
       6 -> 15         0.22040
       7 -> 14        -0.22010
       7 -> 15        -0.25539
       8 -> 17        -0.12808
       8 -> 19        -0.13958
       9 -> 18         0.13959

 Excited State  39:      Singlet-A     25.5419 eV   48.54 nm  f=0.0000  <S**2>=0.000
       8 -> 18        -0.22878
       8 -> 19         0.43979
       9 -> 18         0.44003
       9 -> 19         0.22863

 Excited State  40:      Singlet-A     25.5997 eV   48.43 nm  f=0.0131  <S**2>=0.000
       7 -> 16        -0.10073
       8 -> 17        -0.20989
       8 -> 18         0.23000
       8 -> 19         0.17791
       9 -> 17         0.51621
       9 -> 18        -0.17755
       9 -> 19         0.23013

 Excited State  41:      Singlet-A     25.5997 eV   48.43 nm  f=0.0131  <S**2>=0.000
       6 -> 16        -0.10074
       8 -> 17         0.51616
       8 -> 18         0.17776
       8 -> 19        -0.23020
       9 -> 17         0.20992
       9 -> 18         0.23002
       9 -> 19         0.17766

 Excited State  42:      Singlet-A     25.7212 eV   48.20 nm  f=0.0352  <S**2>=0.000
       6 -> 14        -0.10732
       7 -> 15        -0.10733
       8 -> 17         0.27389
       8 -> 18        -0.19907
       8 -> 19         0.23851
       8 -> 20         0.36959
       9 -> 17         0.12359
       9 -> 18        -0.23853
       9 -> 19        -0.19909
       9 -> 20         0.16682

 Excited State  43:      Singlet-A     25.7213 eV   48.20 nm  f=0.0352  <S**2>=0.000
       6 -> 15        -0.10731
       7 -> 14         0.10730
       8 -> 17        -0.12365
       8 -> 18        -0.23853
       8 -> 19        -0.19908
       8 -> 20        -0.16683
       9 -> 17         0.27386
       9 -> 18         0.19903
       9 -> 19        -0.23857
       9 -> 20         0.36959

 Excited State  44:      Singlet-A     25.8911 eV   47.89 nm  f=0.2573  <S**2>=0.000
       5 -> 16         0.52725
       8 -> 15         0.11265
       8 -> 18        -0.25857
       8 -> 19        -0.13444
       9 -> 14         0.11264
       9 -> 18        -0.13444
       9 -> 19         0.25860

 Excited State  45:      Singlet-A     26.7179 eV   46.40 nm  f=0.0003  <S**2>=0.000
       5 -> 16         0.35269
       6 -> 18         0.15592
       7 -> 19        -0.15593
       8 -> 18         0.33337
       8 -> 19         0.17330
       9 -> 18         0.17330
       9 -> 19        -0.33337

 Excited State  46:      Singlet-A     26.8148 eV   46.24 nm  f=0.2539  <S**2>=0.000
       6 -> 15         0.11857
       7 -> 14        -0.11855
       8 -> 18         0.18381
       9 -> 17        -0.22694
       9 -> 19         0.18381
       9 -> 20         0.55106

 Excited State  47:      Singlet-A     26.8149 eV   46.24 nm  f=0.2539  <S**2>=0.000
       6 -> 14         0.11856
       7 -> 15         0.11857
       8 -> 17        -0.22696
       8 -> 19        -0.18378
       8 -> 20         0.55106
       9 -> 18         0.18381

 Excited State  48:      Singlet-A     29.3388 eV   42.26 nm  f=0.0000  <S**2>=0.000
       6 -> 18        -0.18914
       6 -> 19         0.45785
       7 -> 18         0.45906
       7 -> 19         0.18877

 Excited State  49:      Singlet-A     29.3556 eV   42.24 nm  f=0.0127  <S**2>=0.000
       6 -> 17        -0.10939
       6 -> 18         0.28062
       6 -> 19         0.22896
       7 -> 17         0.45857
       7 -> 18        -0.22762
       7 -> 19         0.28112

 Excited State  50:      Singlet-A     29.3556 eV   42.24 nm  f=0.0127  <S**2>=0.000
       6 -> 17         0.45852
       6 -> 18         0.22850
       6 -> 19        -0.28138
       7 -> 17         0.10941
       7 -> 18         0.28043
       7 -> 19         0.22810

 Excited State  51:      Singlet-A     29.4710 eV   42.07 nm  f=0.0309  <S**2>=0.000
       5 -> 18        -0.33480
       6 -> 17         0.42144
       6 -> 18        -0.21089
       6 -> 19         0.17840
       7 -> 17         0.18835
       7 -> 18        -0.17847
       7 -> 19        -0.21094

 Excited State  52:      Singlet-A     29.4711 eV   42.07 nm  f=0.0309  <S**2>=0.000
       5 -> 19         0.33484
       6 -> 17        -0.18836
       6 -> 18        -0.17844
       6 -> 19        -0.21086
       7 -> 17         0.42140
       7 -> 18         0.21090
       7 -> 19        -0.17851

 Excited State  53:      Singlet-A     29.6816 eV   41.77 nm  f=0.0087  <S**2>=0.000
       5 -> 17         0.63470
       6 -> 18        -0.19275
       7 -> 19         0.19300

 Excited State  54:      Singlet-A     29.7238 eV   41.71 nm  f=0.1187  <S**2>=0.000
       5 -> 18         0.54844
       5 -> 19         0.10634
       6 -> 17         0.15070
       6 -> 19         0.10913
       6 -> 20         0.31493
       7 -> 18        -0.10922

 Excited State  55:      Singlet-A     29.7238 eV   41.71 nm  f=0.1187  <S**2>=0.000
       5 -> 18        -0.10635
       5 -> 19         0.54839
       6 -> 18         0.10930
       7 -> 17        -0.15068
       7 -> 19         0.10907
       7 -> 20        -0.31498

 Excited State  56:      Singlet-A     30.1795 eV   41.08 nm  f=0.0491  <S**2>=0.000
       4 -> 16         0.31937
       5 -> 20         0.62521

 Excited State  57:      Singlet-A     30.1912 eV   41.07 nm  f=0.0459  <S**2>=0.000
       4 -> 14         0.48058
       5 -> 19         0.11190
       6 -> 20         0.12959
       7 -> 20         0.45972

 Excited State  58:      Singlet-A     30.1912 eV   41.07 nm  f=0.0460  <S**2>=0.000
       4 -> 15         0.48051
       5 -> 18        -0.11188
       6 -> 20         0.45978
       7 -> 20        -0.12955

 Excited State  59:      Singlet-A     30.5593 eV   40.57 nm  f=0.0089  <S**2>=0.000
       4 -> 14         0.48355
       5 -> 18         0.13913
       5 -> 19        -0.15004
       6 -> 20        -0.13622
       7 -> 17         0.15168
       7 -> 20        -0.36551

 Excited State  60:      Singlet-A     30.5594 eV   40.57 nm  f=0.0089  <S**2>=0.000
       4 -> 15         0.48361
       5 -> 18         0.14999
       5 -> 19         0.13912
       6 -> 17         0.15167
       6 -> 20        -0.36546
       7 -> 20         0.13623

 Excited State  61:      Singlet-A     30.7105 eV   40.37 nm  f=0.1053  <S**2>=0.000
       4 -> 16         0.54839
       5 -> 17         0.17744
       5 -> 20        -0.29822
       6 -> 18         0.17094
       7 -> 19        -0.17098

 Excited State  62:      Singlet-A     32.2680 eV   38.42 nm  f=0.0037  <S**2>=0.000
       3 -> 11        -0.12827
       4 -> 16        -0.25669
       4 -> 17         0.28888
       5 -> 16        -0.15627
       5 -> 17         0.21252
       5 -> 20         0.11967
       6 -> 18         0.30382
       6 -> 19         0.12522
       7 -> 18         0.12522
       7 -> 19        -0.30381

 Excited State  63:      Singlet-A     33.7431 eV   36.74 nm  f=0.0015  <S**2>=0.000
       3 -> 10         0.67877
       3 -> 11        -0.18146

 Excited State  64:      Singlet-A     34.8952 eV   35.53 nm  f=0.0108  <S**2>=0.000
       3 -> 10         0.17424
       3 -> 11         0.62548
       4 -> 17         0.20388
       8 -> 21         0.10146
       9 -> 22         0.10143

 Excited State  65:      Singlet-A     35.1941 eV   35.23 nm  f=0.0010  <S**2>=0.000
       3 -> 12         0.70151

 Excited State  66:      Singlet-A     35.1941 eV   35.23 nm  f=0.0010  <S**2>=0.000
       3 -> 13         0.70152

 Excited State  67:      Singlet-A     35.3756 eV   35.05 nm  f=0.0769  <S**2>=0.000
       4 -> 18         0.62605
       4 -> 19         0.31352

 Excited State  68:      Singlet-A     35.3756 eV   35.05 nm  f=0.0768  <S**2>=0.000
       4 -> 18        -0.31352
       4 -> 19         0.62606

 Excited State  69:      Singlet-A     35.8155 eV   34.62 nm  f=0.0124  <S**2>=0.000
       4 -> 20         0.70299

 Excited State  70:      Singlet-A     36.1565 eV   34.29 nm  f=0.0000  <S**2>=0.000
       8 -> 21         0.19609
       8 -> 22        -0.45578
       9 -> 21         0.45593
       9 -> 22         0.19589

 Excited State  71:      Singlet-A     36.4326 eV   34.03 nm  f=0.0645  <S**2>=0.000
       8 -> 22         0.48765
       9 -> 21         0.48752

 Excited State  72:      Singlet-A     36.4327 eV   34.03 nm  f=0.0645  <S**2>=0.000
       8 -> 21        -0.48757
       9 -> 22         0.48760

 Excited State  73:      Singlet-A     36.8813 eV   33.62 nm  f=0.1851  <S**2>=0.000
       3 -> 11        -0.10925
       4 -> 17         0.58434
       6 -> 18        -0.14540
       7 -> 19         0.14540
       8 -> 21        -0.13501
       9 -> 22        -0.13504

 Excited State  74:      Singlet-A     38.6264 eV   32.10 nm  f=0.0118  <S**2>=0.000
       7 -> 23         0.17710
       8 -> 23        -0.19864
       9 -> 23         0.65076

 Excited State  75:      Singlet-A     38.6264 eV   32.10 nm  f=0.0118  <S**2>=0.000
       6 -> 23         0.17710
       8 -> 23         0.65076
       9 -> 23         0.19864

 Excited State  76:      Singlet-A     39.0379 eV   31.76 nm  f=1.1244  <S**2>=0.000
       3 -> 11        -0.16894
       4 -> 17         0.14065
       5 -> 23        -0.20852
       8 -> 21         0.38754
       8 -> 22         0.16663
       9 -> 21        -0.16663
       9 -> 22         0.38758

 Excited State  77:      Singlet-A     40.0517 eV   30.96 nm  f=0.0000  <S**2>=0.000
       6 -> 21         0.23313
       6 -> 22        -0.43197
       7 -> 21         0.43227
       7 -> 22         0.23289

 Excited State  78:      Singlet-A     40.1855 eV   30.85 nm  f=0.0123  <S**2>=0.000
       5 -> 21         0.52352
       5 -> 22         0.21763
       6 -> 21         0.14891
       6 -> 22        -0.24984
       7 -> 21        -0.24966
       7 -> 22        -0.14876

 Excited State  79:      Singlet-A     40.1856 eV   30.85 nm  f=0.0123  <S**2>=0.000
       5 -> 21        -0.21769
       5 -> 22         0.52355
       6 -> 21        -0.24960
       6 -> 22        -0.14910
       7 -> 21        -0.14859
       7 -> 22         0.24977

 Excited State  80:      Singlet-A     40.9722 eV   30.26 nm  f=0.3379  <S**2>=0.000
       5 -> 21        -0.10693
       5 -> 22         0.39131
       6 -> 21         0.30670
       6 -> 22         0.24035
       7 -> 21         0.24029
       7 -> 22        -0.30672

 Excited State  81:      Singlet-A     40.9723 eV   30.26 nm  f=0.3378  <S**2>=0.000
       5 -> 21         0.39134
       5 -> 22         0.10702
       6 -> 21        -0.24038
       6 -> 22         0.30663
       7 -> 21         0.30669
       7 -> 22         0.24030

 Excited State  82:      Singlet-A     41.6807 eV   29.75 nm  f=0.1079  <S**2>=0.000
       3 -> 16        -0.12561
       5 -> 23        -0.21496
       6 -> 21         0.40124
       6 -> 22         0.21643
       7 -> 21        -0.21637
       7 -> 22         0.40137

 Excited State  83:      Singlet-A     43.3499 eV   28.60 nm  f=0.0207  <S**2>=0.000
       3 -> 14         0.55860
       7 -> 23         0.40519
       9 -> 23        -0.13087

 Excited State  84:      Singlet-A     43.3499 eV   28.60 nm  f=0.0207  <S**2>=0.000
       3 -> 15         0.55850
       6 -> 23         0.40533
       8 -> 23        -0.13090

 Excited State  85:      Singlet-A     43.5172 eV   28.49 nm  f=0.0035  <S**2>=0.000
       3 -> 14        -0.42874
       7 -> 23         0.53695
       9 -> 23        -0.12710

 Excited State  86:      Singlet-A     43.5172 eV   28.49 nm  f=0.0035  <S**2>=0.000
       3 -> 15        -0.42887
       6 -> 23         0.53685
       8 -> 23        -0.12707

 Excited State  87:      Singlet-A     43.6011 eV   28.44 nm  f=0.0683  <S**2>=0.000
       3 -> 16         0.10624
       5 -> 23         0.50958
       8 -> 24        -0.28089
       9 -> 25        -0.28084

 Excited State  88:      Singlet-A     44.2756 eV   28.00 nm  f=0.0372  <S**2>=0.000
       3 -> 16         0.67272
       5 -> 23        -0.15757

 Excited State  89:      Singlet-A     44.5678 eV   27.82 nm  f=0.0000  <S**2>=0.000
       8 -> 25        -0.48261
       9 -> 24         0.48481

 Excited State  90:      Singlet-A     44.5785 eV   27.81 nm  f=0.0000  <S**2>=0.000
       8 -> 24         0.16455
       8 -> 25         0.46007
       9 -> 24         0.45773
       9 -> 25        -0.16435

 Excited State  91:      Singlet-A     44.5786 eV   27.81 nm  f=0.0000  <S**2>=0.000
       8 -> 24        -0.45890
       8 -> 25         0.16444
       9 -> 24         0.16447
       9 -> 25         0.45891

 Excited State  92:      Singlet-A     46.6080 eV   26.60 nm  f=0.0848  <S**2>=0.000
       4 -> 21         0.68455
       5 -> 24         0.13444

 Excited State  93:      Singlet-A     46.6083 eV   26.60 nm  f=0.0848  <S**2>=0.000
       4 -> 22         0.68455
       5 -> 25         0.13442

 Excited State  94:      Singlet-A     47.6867 eV   26.00 nm  f=0.2007  <S**2>=0.000
       3 -> 20         0.23784
       4 -> 23        -0.18246
       5 -> 23         0.21373
       6 -> 24        -0.23970
       7 -> 25        -0.23959
       8 -> 24         0.33116
       9 -> 25         0.33117

 Excited State  95:      Singlet-A     48.6301 eV   25.50 nm  f=0.0096  <S**2>=0.000
       3 -> 18         0.10727
       5 -> 24         0.44297
       6 -> 25        -0.36029
       7 -> 24        -0.36078

 Excited State  96:      Singlet-A     48.6302 eV   25.50 nm  f=0.0096  <S**2>=0.000
       3 -> 19        -0.10729
       5 -> 25         0.44300
       6 -> 24        -0.36055
       7 -> 25         0.36049

 Excited State  97:      Singlet-A     48.6918 eV   25.46 nm  f=0.0614  <S**2>=0.000
       3 -> 18         0.53568
       5 -> 24        -0.35418
       5 -> 25        -0.14270

 The electronic state is 1-A.
 Alpha  occ. eigenvalues --  -24.78676 -10.36813  -1.27011  -0.78345  -0.57355
 Alpha  occ. eigenvalues --   -0.56723  -0.56723  -0.42272  -0.42272
 Alpha virt. eigenvalues --    0.15467   0.20995   0.21257   0.21257   0.53622
 Alpha virt. eigenvalues --    0.53622   0.56989   0.71684   0.73053   0.73053
 Alpha virt. eigenvalues --    0.74976   1.14816   1.14817   1.25115   1.45601

 Mulliken charges:
               1
     1  C    0.188826
     2  F   -0.293965
     3  H    0.035042
     4  H    0.035049
     5  H    0.035047
 Sum of Mulliken charges =  -0.00000

 Dipole moment (field-independent basis, Debye):
    X=             -1.7940    Y=             -0.0000    Z=             -0.0000  Tot=              1.7940
 Quadrupole moment (field-independent basis, Debye-Ang):
   XX=            -12.1640   YY=            -11.6545   ZZ=            -11.6545
   XY=              0.0000   XZ=              0.0000   YZ=              0.0000

 Normal termination of Gaussian 16 at Sat Aug 14 07:22:47 2021.
