 Gaussian 16, Revision C.01,
 Gaussian 16:  EM64L-G16RevC.01  3-Jul-2019

 ----------------------------------------------------------------------
 #P TD(Nstates=10000) wB97XD/def2SVP SCF(maxcycles=100) Int(Grid=ultraf
 ine)
 ----------------------------------------------------------------------

 ---------------------
 xGDB7_00001_tier4.com
 ---------------------
 Symbolic Z-matrix:
 Charge =  0 Multiplicity = 1

                         Standard orientation:
 ---------------------------------------------------------------------
 Center     Atomic      Atomic             Coordinates (Angstroms)
 Number     Number       Type             X           Y           Z
 ---------------------------------------------------------------------
      1          6           0       -1.244141   -0.235754   -0.027915
      2          6           0        0.053070    0.554353    0.054597
      3          7           0        1.202580   -0.320195   -0.118513
      4          1           0       -2.119845    0.425044    0.054983
      5          1           0       -1.307630   -0.976111    0.786441
      6          1           0       -1.300428   -0.780687   -0.981677
      7          1           0        0.063480    1.130960    1.004377
      8          1           0        0.070274    1.303101   -0.754854
      9          1           0        1.254541   -0.986760    0.650372
     10          1           0        2.067972    0.214222   -0.090146
 ---------------------------------------------------------------------

 SCF Done:  E(RwB97XD) =  -135.032989204     A.U. after   13 cycles

 Excitation energies and oscillator strengths:

 Excited State   1:      Singlet-A      7.0975 eV  174.69 nm  f=0.0084  <S**2>=0.000
      13 -> 14         0.66476
      13 -> 15        -0.22481
 This state for optimization and/or second-order correction.
 Total Energy, E(TD-HF/TD-DFT) =  -134.772162548
 Copying the excited state density for this state as the 1-particle RhoCI density.

 Excited State   2:      Singlet-A      8.4629 eV  146.50 nm  f=0.0184  <S**2>=0.000
      13 -> 16         0.66784
      13 -> 19        -0.21219

 Excited State   3:      Singlet-A      8.7313 eV  142.00 nm  f=0.0181  <S**2>=0.000
      13 -> 14         0.21996
      13 -> 15         0.62551
      13 -> 17        -0.12161
      13 -> 18         0.17849

 Excited State   4:      Singlet-A      9.5190 eV  130.25 nm  f=0.1536  <S**2>=0.000
      13 -> 15         0.12217
      13 -> 17         0.68165

 Excited State   5:      Singlet-A      9.9733 eV  124.32 nm  f=0.0256  <S**2>=0.000
      13 -> 15        -0.16661
      13 -> 16         0.19168
      13 -> 18         0.39685
      13 -> 19         0.50002

 Excited State   6:      Singlet-A     10.4184 eV  119.01 nm  f=0.0042  <S**2>=0.000
      12 -> 14         0.68061

 Excited State   7:      Singlet-A     10.5320 eV  117.72 nm  f=0.0002  <S**2>=0.000
      13 -> 18         0.53024
      13 -> 19        -0.38333
      13 -> 20        -0.18142

 Excited State   8:      Singlet-A     10.7481 eV  115.35 nm  f=0.0259  <S**2>=0.000
      13 -> 19        -0.17939
      13 -> 20         0.66313

 Excited State   9:      Singlet-A     10.9956 eV  112.76 nm  f=0.0047  <S**2>=0.000
      10 -> 14         0.17059
      11 -> 14         0.65386
      12 -> 15        -0.12061

 Excited State  10:      Singlet-A     11.2077 eV  110.62 nm  f=0.1363  <S**2>=0.000
      10 -> 14         0.64183
      10 -> 15         0.21248
      11 -> 14        -0.14809

 Excited State  11:      Singlet-A     11.5402 eV  107.44 nm  f=0.0254  <S**2>=0.000
       9 -> 14        -0.20449
      12 -> 15         0.60011
      13 -> 21        -0.11209
      13 -> 22        -0.23337

 Excited State  12:      Singlet-A     11.6358 eV  106.55 nm  f=0.0461  <S**2>=0.000
      12 -> 15         0.19041
      12 -> 16        -0.22551
      13 -> 21         0.42277
      13 -> 22         0.44916

 Excited State  13:      Singlet-A     11.8042 eV  105.03 nm  f=0.4069  <S**2>=0.000
      12 -> 15         0.12806
      12 -> 16         0.63195
      13 -> 21         0.23674

 Excited State  14:      Singlet-A     12.0181 eV  103.16 nm  f=0.0917  <S**2>=0.000
      11 -> 15        -0.22130
      11 -> 16        -0.25592
      13 -> 21         0.42115
      13 -> 22        -0.39786

 Excited State  15:      Singlet-A     12.1451 eV  102.09 nm  f=0.0713  <S**2>=0.000
      10 -> 15         0.15625
      11 -> 15         0.47676
      11 -> 16        -0.33115
      12 -> 17        -0.30291

 Excited State  16:      Singlet-A     12.2061 eV  101.58 nm  f=0.0116  <S**2>=0.000
      10 -> 15         0.36016
      11 -> 16         0.45589
      12 -> 17        -0.28257
      13 -> 22        -0.10813

 Excited State  17:      Singlet-A     12.2734 eV  101.02 nm  f=0.0220  <S**2>=0.000
       9 -> 14         0.15319
      10 -> 15         0.34286
      11 -> 15         0.18357
      12 -> 17         0.49954
      12 -> 18         0.10368

 Excited State  18:      Singlet-A     12.2922 eV  100.86 nm  f=0.1210  <S**2>=0.000
      10 -> 14         0.11475
      10 -> 15        -0.29534
      11 -> 15         0.37028
      11 -> 16         0.27454
      11 -> 17         0.12257
      12 -> 15        -0.10066
      12 -> 18         0.10861
      13 -> 21         0.22081
      13 -> 22        -0.20729

 Excited State  19:      Singlet-A     12.4079 eV   99.92 nm  f=0.0733  <S**2>=0.000
       9 -> 14        -0.16993
      10 -> 16         0.61856
      10 -> 17         0.12030
      12 -> 18        -0.15260

 Excited State  20:      Singlet-A     12.5761 eV   98.59 nm  f=0.0100  <S**2>=0.000
       9 -> 14         0.20285
      10 -> 16         0.20592
      12 -> 17        -0.16720
      12 -> 18         0.57706

 Excited State  21:      Singlet-A     12.7884 eV   96.95 nm  f=0.1045  <S**2>=0.000
      10 -> 17         0.27491
      11 -> 17         0.57910
      11 -> 18         0.13084
      12 -> 17        -0.10290

 Excited State  22:      Singlet-A     12.8651 eV   96.37 nm  f=0.2008  <S**2>=0.000
       9 -> 14         0.50467
      10 -> 15        -0.14790
      10 -> 16         0.11567
      10 -> 17        -0.19520
      11 -> 17         0.17478
      12 -> 15         0.16675
      12 -> 18        -0.24954

 Excited State  23:      Singlet-A     13.0518 eV   94.99 nm  f=0.0543  <S**2>=0.000
       9 -> 14         0.22099
      10 -> 15        -0.10082
      10 -> 17         0.51855
      10 -> 18         0.12908
      11 -> 17        -0.21778
      11 -> 18        -0.13983
      12 -> 20         0.14962

 Excited State  24:      Singlet-A     13.1601 eV   94.21 nm  f=0.0553  <S**2>=0.000
      10 -> 18         0.15088
      11 -> 17        -0.15180
      11 -> 18         0.62028
      11 -> 19        -0.13897

 Excited State  25:      Singlet-A     13.2162 eV   93.81 nm  f=0.0483  <S**2>=0.000
       9 -> 16         0.16492
      10 -> 17        -0.23081
      10 -> 18         0.28633
      11 -> 20         0.15652
      12 -> 19        -0.31198
      12 -> 20         0.41176

 Excited State  26:      Singlet-A     13.3179 eV   93.10 nm  f=0.1583  <S**2>=0.000
       9 -> 15         0.16958
       9 -> 16        -0.13180
      11 -> 20         0.17304
      12 -> 19         0.48820
      12 -> 20         0.35173

 Excited State  27:      Singlet-A     13.4554 eV   92.14 nm  f=0.4831  <S**2>=0.000
      10 -> 18         0.51544
      11 -> 18        -0.11722
      11 -> 19         0.12260
      11 -> 20        -0.31151
      12 -> 19         0.20300
      12 -> 20        -0.12086

 Excited State  28:      Singlet-A     13.7394 eV   90.24 nm  f=0.0401  <S**2>=0.000
       8 -> 14         0.15887
       9 -> 15        -0.22464
       9 -> 16        -0.18460
      10 -> 20         0.54885
      11 -> 20         0.18436

 Excited State  29:      Singlet-A     13.7806 eV   89.97 nm  f=0.0961  <S**2>=0.000
       9 -> 15        -0.26437
       9 -> 16         0.11378
      10 -> 19         0.25128
      10 -> 20        -0.17639
      11 -> 19         0.18827
      11 -> 20         0.42563
      12 -> 19         0.11737
      12 -> 20        -0.18583

 Excited State  30:      Singlet-A     13.9279 eV   89.02 nm  f=0.1102  <S**2>=0.000
       7 -> 14        -0.14998
       8 -> 14         0.43384
       9 -> 15        -0.11984
      10 -> 20        -0.18447
      11 -> 18        -0.15862
      11 -> 19        -0.39334

 Excited State  31:      Singlet-A     13.9841 eV   88.66 nm  f=0.1261  <S**2>=0.000
       7 -> 14         0.20375
       9 -> 15         0.38539
       9 -> 16         0.20945
      10 -> 18         0.17877
      10 -> 20         0.13101
      11 -> 19        -0.24835
      11 -> 20         0.22735
      12 -> 20        -0.23404

 Excited State  32:      Singlet-A     14.0619 eV   88.17 nm  f=0.0621  <S**2>=0.000
       8 -> 14         0.45573
       9 -> 15         0.20600
      11 -> 19         0.40048

 Excited State  33:      Singlet-A     14.1403 eV   87.68 nm  f=0.0483  <S**2>=0.000
       8 -> 16         0.11548
       9 -> 16         0.33375
       9 -> 19        -0.11157
      10 -> 19         0.36559
      10 -> 20         0.25378
      11 -> 20        -0.20517
      12 -> 19         0.15305
      12 -> 20         0.12563
      12 -> 21         0.10193

 Excited State  34:      Singlet-A     14.2787 eV   86.83 nm  f=0.0348  <S**2>=0.000
       8 -> 16        -0.14445
       9 -> 15        -0.16236
       9 -> 16         0.45329
      10 -> 19        -0.40227
      12 -> 19         0.14069

 Excited State  35:      Singlet-A     14.3935 eV   86.14 nm  f=0.0293  <S**2>=0.000
       7 -> 14         0.45234
       7 -> 15        -0.14649
       9 -> 15        -0.21472
       9 -> 17        -0.37796
      12 -> 22        -0.14459

 Excited State  36:      Singlet-A     14.6367 eV   84.71 nm  f=0.0107  <S**2>=0.000
       7 -> 14         0.28804
       9 -> 15        -0.11071
       9 -> 17         0.46373
      12 -> 21         0.37804

 Excited State  37:      Singlet-A     14.7871 eV   83.85 nm  f=0.0865  <S**2>=0.000
       7 -> 14        -0.18383
       9 -> 17        -0.28656
      10 -> 19        -0.12446
      12 -> 19        -0.10015
      12 -> 21         0.52634

 Excited State  38:      Singlet-A     14.9348 eV   83.02 nm  f=0.0185  <S**2>=0.000
       7 -> 14         0.13132
       8 -> 15        -0.14915
       9 -> 18        -0.16082
      10 -> 19        -0.10266
      11 -> 21         0.25468
      12 -> 22         0.55549

 Excited State  39:      Singlet-A     15.0137 eV   82.58 nm  f=0.0163  <S**2>=0.000
       8 -> 15         0.38250
       9 -> 18         0.41312
      10 -> 21         0.30526
      11 -> 22         0.12921
      12 -> 22         0.15823

 Excited State  40:      Singlet-A     15.0746 eV   82.25 nm  f=0.0251  <S**2>=0.000
       8 -> 15         0.18811
       8 -> 16         0.57118
      10 -> 19        -0.15098
      10 -> 21        -0.26908
      11 -> 22        -0.11405

 Excited State  41:      Singlet-A     15.1655 eV   81.75 nm  f=0.0634  <S**2>=0.000
       8 -> 15        -0.35722
       9 -> 17        -0.12134
       9 -> 18         0.48248
       9 -> 19        -0.16069
      10 -> 21        -0.18503

 Excited State  42:      Singlet-A     15.2714 eV   81.19 nm  f=0.0865  <S**2>=0.000
       9 -> 20         0.21144
      10 -> 21        -0.18030
      11 -> 21         0.51591
      11 -> 22         0.19644
      12 -> 22        -0.22022

 Excited State  43:      Singlet-A     15.3768 eV   80.63 nm  f=0.0748  <S**2>=0.000
       8 -> 15        -0.30408
       8 -> 16         0.28646
       8 -> 17         0.17654
       9 -> 19         0.18476
      10 -> 21         0.37293
      11 -> 22         0.13242
      12 -> 22        -0.18993

 Excited State  44:      Singlet-A     15.5461 eV   79.75 nm  f=0.0274  <S**2>=0.000
       7 -> 16         0.25109
       8 -> 16        -0.12298
       8 -> 17         0.40100
       9 -> 19         0.25515
       9 -> 20         0.14127
      10 -> 21        -0.15428
      10 -> 22         0.18000
      11 -> 22        -0.18871
      12 -> 22         0.10044

 Excited State  45:      Singlet-A     15.6239 eV   79.36 nm  f=0.1677  <S**2>=0.000
       7 -> 16        -0.12892
       8 -> 17        -0.14680
       9 -> 20         0.49350
      10 -> 21         0.13891
      10 -> 22        -0.10814
      11 -> 22        -0.37981

 Excited State  46:      Singlet-A     15.8127 eV   78.41 nm  f=0.0540  <S**2>=0.000
       7 -> 14         0.14714
       7 -> 15         0.53719
       7 -> 16         0.19032
       7 -> 17        -0.12117
       7 -> 18         0.13346
       8 -> 17         0.15156
       9 -> 19        -0.19625
      10 -> 22        -0.11791

 Excited State  47:      Singlet-A     15.9253 eV   77.85 nm  f=0.0539  <S**2>=0.000
       7 -> 16         0.41771
       8 -> 17        -0.32877
       9 -> 19        -0.12564
      10 -> 22         0.35822

 Excited State  48:      Singlet-A     15.9363 eV   77.80 nm  f=0.0886  <S**2>=0.000
       7 -> 15         0.22071
       8 -> 17        -0.22501
       8 -> 18         0.17592
       9 -> 19         0.36913
       9 -> 20        -0.26531
       9 -> 21         0.10153
      11 -> 21         0.12406
      11 -> 22        -0.23334
      12 -> 21         0.13019

 Excited State  49:      Singlet-A     16.0106 eV   77.44 nm  f=0.1503  <S**2>=0.000
       7 -> 15         0.16618
       7 -> 16        -0.26876
       7 -> 17        -0.15220
       8 -> 17        -0.15955
       8 -> 18        -0.10407
       9 -> 19         0.29208
       9 -> 20         0.20254
      10 -> 21        -0.13735
      10 -> 22         0.21813
      11 -> 21        -0.18101
      11 -> 22         0.25971

 Excited State  50:      Singlet-A     16.3845 eV   75.67 nm  f=0.0785  <S**2>=0.000
       7 -> 17         0.20211
       8 -> 18         0.55070
       8 -> 20         0.16973
      10 -> 21        -0.14320
      11 -> 22         0.17093

 Excited State  51:      Singlet-A     16.4467 eV   75.39 nm  f=0.1758  <S**2>=0.000
       7 -> 15         0.14055
       7 -> 16        -0.26619
       7 -> 17         0.14114
       8 -> 17         0.14639
       8 -> 18         0.19689
       8 -> 20        -0.10958
       9 -> 19        -0.13564
      10 -> 21         0.11281
      10 -> 22         0.45464
      11 -> 21         0.12842

 Excited State  52:      Singlet-A     16.5651 eV   74.85 nm  f=0.0624  <S**2>=0.000
       7 -> 15         0.11233
       7 -> 17         0.59105
       8 -> 18        -0.23566
       9 -> 21         0.12934

 Excited State  53:      Singlet-A     16.7577 eV   73.99 nm  f=0.0144  <S**2>=0.000
       8 -> 19         0.57700
       8 -> 20        -0.23213
       9 -> 21        -0.25416

 Excited State  54:      Singlet-A     16.8345 eV   73.65 nm  f=0.0309  <S**2>=0.000
       8 -> 19         0.31754
       8 -> 20         0.45948
       9 -> 21         0.35706

 Excited State  55:      Singlet-A     16.9801 eV   73.02 nm  f=0.1979  <S**2>=0.000
       7 -> 19         0.19713
       8 -> 19         0.12176
       8 -> 20        -0.36909
       9 -> 21         0.45925

 Excited State  56:      Singlet-A     17.2011 eV   72.08 nm  f=0.0162  <S**2>=0.000
       7 -> 18         0.37229
       7 -> 19         0.32343
       7 -> 20         0.15928
       9 -> 21        -0.13585
       9 -> 22         0.38257

 Excited State  57:      Singlet-A     17.4167 eV   71.19 nm  f=0.0950  <S**2>=0.000
       7 -> 18         0.42015
       7 -> 20        -0.10964
       9 -> 22        -0.40770
      13 -> 23         0.29457

 Excited State  58:      Singlet-A     17.4589 eV   71.01 nm  f=0.0614  <S**2>=0.000
       6 -> 14         0.15457
       7 -> 19        -0.12110
       9 -> 22         0.20952
      13 -> 23         0.48350
      13 -> 24        -0.31069
      13 -> 25        -0.21632

 Excited State  59:      Singlet-A     17.6798 eV   70.13 nm  f=0.0421  <S**2>=0.000
       6 -> 14        -0.11239
       7 -> 18        -0.32027
       7 -> 19         0.37795
       7 -> 20         0.30957
       9 -> 22        -0.15669
      13 -> 23         0.21269

 Excited State  60:      Singlet-A     17.7566 eV   69.82 nm  f=0.0033  <S**2>=0.000
       6 -> 14        -0.26716
       7 -> 18         0.13985
       7 -> 19        -0.30847
       7 -> 20         0.50762
       8 -> 21        -0.10482

 Excited State  61:      Singlet-A     17.8965 eV   69.28 nm  f=0.0553  <S**2>=0.000
       6 -> 14         0.46023
       7 -> 19        -0.10079
       7 -> 20         0.25985
       8 -> 21         0.36508

 Excited State  62:      Singlet-A     17.9733 eV   68.98 nm  f=0.0109  <S**2>=0.000
       6 -> 14        -0.26340
       8 -> 21         0.40218
      13 -> 24        -0.36008
      13 -> 25         0.24659
      13 -> 26         0.17941

 Excited State  63:      Singlet-A     18.0446 eV   68.71 nm  f=0.0087  <S**2>=0.000
       6 -> 14        -0.21152
       8 -> 21         0.26431
       8 -> 22        -0.19592
       9 -> 22         0.14058
      13 -> 23         0.11110
      13 -> 24         0.41158
      13 -> 25        -0.27925
      13 -> 26         0.20232

 Excited State  64:      Singlet-A     18.1645 eV   68.26 nm  f=0.0504  <S**2>=0.000
       8 -> 21        -0.18422
       8 -> 22        -0.21708
       9 -> 22         0.11308
      13 -> 23         0.26259
      13 -> 24         0.18261
      13 -> 25         0.50206

 Excited State  65:      Singlet-A     18.2264 eV   68.02 nm  f=0.0217  <S**2>=0.000
       8 -> 21        -0.21828
       8 -> 22         0.22397
      13 -> 26         0.59479

 Excited State  66:      Singlet-A     18.6388 eV   66.52 nm  f=0.0481  <S**2>=0.000
       6 -> 15        -0.12050
       7 -> 19        -0.12194
       7 -> 21        -0.37530
       7 -> 22        -0.23758
       8 -> 22         0.42372
      13 -> 24         0.12920

 Excited State  67:      Singlet-A     18.8980 eV   65.61 nm  f=0.0537  <S**2>=0.000
       7 -> 22         0.62550
       8 -> 22         0.21508

 Excited State  68:      Singlet-A     18.9641 eV   65.38 nm  f=0.0110  <S**2>=0.000
       6 -> 15         0.12009
       6 -> 16         0.63787
       6 -> 17         0.17547
       7 -> 21         0.13629

 Excited State  69:      Singlet-A     19.0964 eV   64.93 nm  f=0.0404  <S**2>=0.000
       6 -> 15         0.58595
       6 -> 16        -0.14208
       7 -> 19        -0.10856
       7 -> 21         0.15271
       8 -> 22         0.15871

 Excited State  70:      Singlet-A     19.2648 eV   64.36 nm  f=0.0835  <S**2>=0.000
       6 -> 14        -0.11057
       6 -> 15        -0.25939
       6 -> 17        -0.17096
       7 -> 21         0.49718
       7 -> 22        -0.14100
       8 -> 22         0.15903
       9 -> 22         0.11923
      12 -> 23         0.12421
      13 -> 27         0.12008

 Excited State  71:      Singlet-A     19.5549 eV   63.40 nm  f=0.0082  <S**2>=0.000
       6 -> 16        -0.17208
       6 -> 17         0.61938
       6 -> 18         0.19573
       7 -> 21         0.10927

 Excited State  72:      Singlet-A     20.1098 eV   61.65 nm  f=0.0071  <S**2>=0.000
       6 -> 17        -0.15612
       6 -> 18         0.63953
      13 -> 27        -0.11028

 Excited State  73:      Singlet-A     20.4647 eV   60.58 nm  f=0.0217  <S**2>=0.000
       6 -> 19        -0.12129
       6 -> 20         0.52774
      12 -> 23        -0.23277
      12 -> 24        -0.17053
      12 -> 25         0.24659
      13 -> 27         0.12058

 Excited State  74:      Singlet-A     20.4793 eV   60.54 nm  f=0.0052  <S**2>=0.000
       6 -> 19        -0.10559
      11 -> 23         0.43285
      12 -> 23        -0.10163
      12 -> 24         0.32481
      12 -> 25         0.34030
      13 -> 27         0.17116

 Excited State  75:      Singlet-A     20.5434 eV   60.35 nm  f=0.0111  <S**2>=0.000
       6 -> 19         0.53322
       6 -> 20         0.20961
      10 -> 23        -0.13664
      12 -> 24         0.31921

 Excited State  76:      Singlet-A     20.5794 eV   60.25 nm  f=0.0032  <S**2>=0.000
       6 -> 19         0.37679
       6 -> 20        -0.15222
      10 -> 23         0.26412
      10 -> 24         0.11234
      12 -> 24        -0.36678
      12 -> 25         0.29942

 Excited State  77:      Singlet-A     20.7361 eV   59.79 nm  f=0.0273  <S**2>=0.000
       6 -> 20         0.32627
      10 -> 23         0.41097
      10 -> 24         0.11894
      10 -> 25         0.11950
      11 -> 23         0.12760
      12 -> 23         0.33643
      12 -> 25        -0.11268

 Excited State  78:      Singlet-A     20.8885 eV   59.36 nm  f=0.0577  <S**2>=0.000
       5 -> 14         0.13580
      11 -> 23        -0.32687
      11 -> 24         0.35388
      11 -> 25        -0.18810
      12 -> 24         0.23036
      12 -> 25         0.25126
      13 -> 27        -0.18284

 Excited State  79:      Singlet-A     20.9097 eV   59.30 nm  f=0.0681  <S**2>=0.000
       5 -> 14        -0.11239
      10 -> 23         0.19545
      10 -> 24         0.14162
      11 -> 23        -0.17181
      11 -> 24         0.28546
      12 -> 23        -0.22397
      12 -> 25        -0.18108
      13 -> 27         0.40269

 Excited State  80:      Singlet-A     21.0929 eV   58.78 nm  f=0.0856  <S**2>=0.000
       5 -> 14        -0.12021
      10 -> 23        -0.25944
      10 -> 24        -0.12873
      10 -> 25         0.38042
      11 -> 24         0.10747
      11 -> 25        -0.16062
      12 -> 23         0.27264
      12 -> 24        -0.14317
      13 -> 27         0.23159

 Excited State  81:      Singlet-A     21.2163 eV   58.44 nm  f=0.0062  <S**2>=0.000
       5 -> 14         0.21444
      10 -> 25         0.22589
      11 -> 26         0.15946
      12 -> 26         0.57565

 Excited State  82:      Singlet-A     21.2359 eV   58.38 nm  f=0.1289  <S**2>=0.000
       5 -> 14        -0.21241
      10 -> 23         0.12793
      10 -> 25         0.39125
      11 -> 24        -0.12791
      11 -> 25        -0.22290
      12 -> 23        -0.29131
      12 -> 25        -0.17656
      13 -> 27        -0.17259

 Excited State  83:      Singlet-A     21.3619 eV   58.04 nm  f=0.0687  <S**2>=0.000
       5 -> 14         0.43891
      10 -> 23        -0.12030
      10 -> 24         0.26556

 The electronic state is 1-A.
 Alpha  occ. eigenvalues --  -14.41498 -10.31389 -10.28306  -0.96597  -0.81515
 Alpha  occ. eigenvalues --   -0.68465  -0.57027  -0.54675  -0.50435  -0.44682
 Alpha  occ. eigenvalues --   -0.44223  -0.42111  -0.31187
 Alpha virt. eigenvalues --    0.13809   0.17878   0.18455   0.20663   0.22323
 Alpha virt. eigenvalues --    0.24342   0.24650   0.31402   0.32688   0.51640
 Alpha virt. eigenvalues --    0.52924   0.53414   0.56875   0.63727   0.70751

 Mulliken charges:
               1
     1  C   -0.088920
     2  C    0.020716
     3  N   -0.286876
     4  H    0.035338
     5  H    0.028400
     6  H    0.045779
     7  H    0.008917
     8  H    0.027561
     9  H    0.102804
    10  H    0.106281
 Sum of Mulliken charges =  -0.00000

 Dipole moment (field-independent basis, Debye):
    X=              0.3064    Y=              0.5666    Z=              1.1452  Tot=              1.3139
 Quadrupole moment (field-independent basis, Debye-Ang):
   XX=            -18.9198   YY=            -20.5076   ZZ=            -21.0249
   XY=              0.6529   XZ=              1.6185   YZ=             -1.6208

 Normal termination of Gaussian 16 at Sat Aug 14 07:23:53 2021.
