 Gaussian 16, Revision C.01,
 Gaussian 16:  EM64L-G16RevC.01  3-Jul-2019

 ----------------------------------------------------------------------
 #P TD(Nstates=10000) wB97XD/def2SVP SCF(maxcycles=100) Int(Grid=ultraf
 ine)
 ----------------------------------------------------------------------

 ---------------------
 xGDB7_00001_tier4.com
 ---------------------
 Symbolic Z-matrix:
 Charge =  0 Multiplicity = 1

                         Standard orientation:
 ---------------------------------------------------------------------
 Center     Atomic      Atomic             Coordinates (Angstroms)
 Number     Number       Type             X           Y           Z
 ---------------------------------------------------------------------
      1          6           0        0.000000    0.732418   -0.362202
      2          6           0       -0.000000   -0.732418   -0.362202
      3          8           0       -0.000000   -0.000000    0.839289
      4          1           0       -0.925613    1.274996   -0.591974
      5          1           0        0.925613    1.274996   -0.591974
      6          1           0        0.925613   -1.274996   -0.591974
      7          1           0       -0.925613   -1.274996   -0.591974
 ---------------------------------------------------------------------

 SCF Done:  E(RwB97XD) =  -153.623079762     A.U. after   13 cycles

 Excitation energies and oscillator strengths:

 Excited State   1:      Singlet-A2     8.6717 eV  142.98 nm  f=0.0000  <S**2>=0.000
      12 -> 14         0.62022
      12 -> 16        -0.33372
 This state for optimization and/or second-order correction.
 Total Energy, E(TD-HF/TD-DFT) =  -153.304402245
 Copying the excited state density for this state as the 1-particle RhoCI density.

 Excited State   2:      Singlet-B1     9.0631 eV  136.80 nm  f=0.1017  <S**2>=0.000
      12 -> 13         0.68900
      12 -> 17         0.15038

 Excited State   3:      Singlet-B1     9.5042 eV  130.45 nm  f=0.0120  <S**2>=0.000
      12 -> 13        -0.14954
      12 -> 17         0.68685

 Excited State   4:      Singlet-A1    10.0288 eV  123.63 nm  f=0.0166  <S**2>=0.000
      11 -> 13        -0.26736
      11 -> 17        -0.21360
      12 -> 15         0.61489

 Excited State   5:      Singlet-A1    10.0502 eV  123.36 nm  f=0.0072  <S**2>=0.000
      11 -> 13         0.63909
      12 -> 15         0.29000

 Excited State   6:      Singlet-A2    10.2157 eV  121.37 nm  f=0.0000  <S**2>=0.000
      10 -> 13        -0.11111
      12 -> 14         0.33234
      12 -> 16         0.61119

 Excited State   7:      Singlet-B2    10.6982 eV  115.89 nm  f=0.3196  <S**2>=0.000
       9 -> 17         0.13378
      11 -> 14         0.68505

 Excited State   8:      Singlet-B1    10.7239 eV  115.61 nm  f=0.0206  <S**2>=0.000
      11 -> 15         0.70137

 Excited State   9:      Singlet-A1    10.8569 eV  114.20 nm  f=0.0380  <S**2>=0.000
       9 -> 14         0.12336
       9 -> 16        -0.10911
      11 -> 13        -0.13200
      11 -> 17         0.65425
      12 -> 15         0.15685

 Excited State  10:      Singlet-B2    11.4393 eV  108.38 nm  f=0.0177  <S**2>=0.000
      11 -> 16         0.68991

 Excited State  11:      Singlet-B2    11.8338 eV  104.77 nm  f=0.1774  <S**2>=0.000
      10 -> 15        -0.11974
      12 -> 18         0.69501

 Excited State  12:      Singlet-B1    11.9069 eV  104.13 nm  f=0.0213  <S**2>=0.000
      10 -> 14         0.65406
      10 -> 16        -0.24996

 Excited State  13:      Singlet-A2    11.9086 eV  104.11 nm  f=0.0000  <S**2>=0.000
      10 -> 13         0.69112

 Excited State  14:      Singlet-B2    12.6259 eV   98.20 nm  f=0.0955  <S**2>=0.000
       9 -> 13         0.69607

 Excited State  15:      Singlet-A2    12.6773 eV   97.80 nm  f=0.0000  <S**2>=0.000
      10 -> 17        -0.25676
      11 -> 18         0.64837

 Excited State  16:      Singlet-A2    12.8187 eV   96.72 nm  f=0.0000  <S**2>=0.000
      10 -> 17         0.64171
      11 -> 18         0.26917

 Excited State  17:      Singlet-B2    12.9998 eV   95.37 nm  f=0.2156  <S**2>=0.000
      10 -> 15         0.68284
      12 -> 18         0.12143

 Excited State  18:      Singlet-B1    13.2339 eV   93.69 nm  f=0.3700  <S**2>=0.000
       7 -> 13         0.10863
      10 -> 14         0.24723
      10 -> 16         0.64894

 Excited State  19:      Singlet-A1    13.2471 eV   93.59 nm  f=0.0466  <S**2>=0.000
       8 -> 17         0.13602
       9 -> 14         0.67007
      11 -> 17        -0.11196

 Excited State  20:      Singlet-A2    13.2821 eV   93.35 nm  f=0.0000  <S**2>=0.000
       9 -> 15         0.69334
      10 -> 17        -0.10160

 Excited State  21:      Singlet-B2    13.3403 eV   92.94 nm  f=0.1460  <S**2>=0.000
       8 -> 14        -0.10097
       9 -> 17         0.65432
      11 -> 14        -0.11579
      11 -> 19         0.11790

 Excited State  22:      Singlet-A2    14.0592 eV   88.19 nm  f=0.0000  <S**2>=0.000
      12 -> 19         0.69377

 Excited State  23:      Singlet-A1    14.1731 eV   87.48 nm  f=0.1116  <S**2>=0.000
       8 -> 17        -0.12670
       9 -> 16         0.67133

 Excited State  24:      Singlet-B2    14.7605 eV   84.00 nm  f=0.1489  <S**2>=0.000
       8 -> 14         0.64988
       8 -> 16        -0.23066
       9 -> 17         0.11587

 Excited State  25:      Singlet-A1    14.8931 eV   83.25 nm  f=0.0069  <S**2>=0.000
       8 -> 13         0.53843
      10 -> 18        -0.44236

 Excited State  26:      Singlet-B2    15.1637 eV   81.76 nm  f=0.1061  <S**2>=0.000
      11 -> 19         0.68853

 Excited State  27:      Singlet-B1    15.2338 eV   81.39 nm  f=0.1074  <S**2>=0.000
       8 -> 15        -0.33341
       9 -> 18         0.61078

 Excited State  28:      Singlet-A1    15.2614 eV   81.24 nm  f=0.0848  <S**2>=0.000
       8 -> 13         0.45071
      10 -> 18         0.52231

 Excited State  29:      Singlet-A2    15.4880 eV   80.05 nm  f=0.0000  <S**2>=0.000
       7 -> 14         0.64051
       7 -> 16        -0.27327

 Excited State  30:      Singlet-B1    15.6857 eV   79.04 nm  f=0.0925  <S**2>=0.000
       7 -> 13         0.18787
       8 -> 15         0.58876
       9 -> 18         0.31967

 Excited State  31:      Singlet-B1    15.7814 eV   78.56 nm  f=0.1810  <S**2>=0.000
       7 -> 13         0.66637
       8 -> 15        -0.14280
       9 -> 18        -0.13849
      10 -> 16        -0.10027

 Excited State  32:      Singlet-A1    15.8495 eV   78.23 nm  f=0.2685  <S**2>=0.000
       7 -> 15        -0.18577
       8 -> 17         0.63387
      10 -> 18         0.12496

 Excited State  33:      Singlet-B2    16.1921 eV   76.57 nm  f=0.0919  <S**2>=0.000
       8 -> 14         0.24416
       8 -> 16         0.65180

 Excited State  34:      Singlet-B1    16.5241 eV   75.03 nm  f=0.0833  <S**2>=0.000
       7 -> 17         0.68766

 Excited State  35:      Singlet-A1    16.8620 eV   73.53 nm  f=0.0139  <S**2>=0.000
       7 -> 15         0.64697
       8 -> 17         0.15417
       9 -> 19        -0.14273
      11 -> 20        -0.12258

 Excited State  36:      Singlet-A2    16.9091 eV   73.32 nm  f=0.0000  <S**2>=0.000
       7 -> 14         0.26877
       7 -> 16         0.63098
       8 -> 18         0.12937

 Excited State  37:      Singlet-B1    16.9605 eV   73.10 nm  f=0.0052  <S**2>=0.000
      10 -> 19         0.12745
      12 -> 20         0.68245

 Excited State  38:      Singlet-A2    17.5050 eV   70.83 nm  f=0.0000  <S**2>=0.000
       6 -> 15         0.13253
       7 -> 16        -0.11652
       8 -> 18         0.67818

 Excited State  39:      Singlet-B1    17.6532 eV   70.23 nm  f=0.2733  <S**2>=0.000
      10 -> 19         0.67176
      12 -> 20        -0.13134

 Excited State  40:      Singlet-A1    17.9600 eV   69.03 nm  f=0.0121  <S**2>=0.000
       7 -> 15         0.15015
       9 -> 19         0.44934
      11 -> 20         0.49021

 Excited State  41:      Singlet-A1    18.1743 eV   68.22 nm  f=0.1214  <S**2>=0.000
       9 -> 19        -0.44156
      11 -> 20         0.44654
      12 -> 21         0.29989

 Excited State  42:      Singlet-B2    18.6150 eV   66.60 nm  f=0.0155  <S**2>=0.000
       6 -> 13        -0.16083
       7 -> 18         0.67449

 Excited State  43:      Singlet-A2    19.0847 eV   64.97 nm  f=0.0000  <S**2>=0.000
      10 -> 20         0.10132
      12 -> 22         0.69028

 Excited State  44:      Singlet-B2    19.2012 eV   64.57 nm  f=0.0225  <S**2>=0.000
       6 -> 13         0.64072
       7 -> 18         0.12154
       8 -> 19         0.16939
      11 -> 22        -0.15743

 Excited State  45:      Singlet-A1    19.2135 eV   64.53 nm  f=0.1014  <S**2>=0.000
       6 -> 14         0.55105
       6 -> 16        -0.21905
       9 -> 19         0.11590
      11 -> 23        -0.11619
      12 -> 21         0.32310

 Excited State  46:      Singlet-A2    19.7545 eV   62.76 nm  f=0.0000  <S**2>=0.000
       6 -> 15         0.66010
       8 -> 18        -0.13486
      10 -> 20        -0.18281

 Excited State  47:      Singlet-B2    19.7910 eV   62.65 nm  f=0.0497  <S**2>=0.000
       6 -> 17         0.63424
       8 -> 19        -0.20685
       9 -> 20        -0.14054

 Excited State  48:      Singlet-A2    19.8279 eV   62.53 nm  f=0.0000  <S**2>=0.000
       6 -> 15         0.17483
      10 -> 20         0.65615
      12 -> 22        -0.10502

 Excited State  49:      Singlet-A1    19.8680 eV   62.40 nm  f=0.0207  <S**2>=0.000
       5 -> 17         0.15778
       6 -> 14        -0.40306
       9 -> 19         0.15287
      11 -> 20        -0.11291
      11 -> 23        -0.10176
      12 -> 21         0.47708

 Excited State  50:      Singlet-B1    19.9092 eV   62.27 nm  f=0.0027  <S**2>=0.000
      11 -> 21         0.54994
      12 -> 23        -0.42585

 Excited State  51:      Singlet-A1    20.0174 eV   61.94 nm  f=0.0030  <S**2>=0.000
       5 -> 13         0.66028
       6 -> 16        -0.16683
      11 -> 24         0.13601

 Excited State  52:      Singlet-B2    20.0656 eV   61.79 nm  f=0.1136  <S**2>=0.000
       5 -> 14        -0.19768
       6 -> 17         0.12285
       8 -> 19         0.44993
      11 -> 22         0.47653

 Excited State  53:      Singlet-B1    20.2747 eV   61.15 nm  f=0.1941  <S**2>=0.000
       5 -> 15         0.11596
      11 -> 21         0.39102
      12 -> 23         0.51681
      12 -> 24         0.19611

 Excited State  54:      Singlet-B2    20.3575 eV   60.90 nm  f=0.0144  <S**2>=0.000
       5 -> 14         0.50160
       5 -> 16        -0.17423
       6 -> 17        -0.16676
       9 -> 20        -0.32735
      11 -> 22         0.25917

 Excited State  55:      Singlet-B2    20.4206 eV   60.72 nm  f=0.0584  <S**2>=0.000
       5 -> 14         0.31926
       5 -> 16        -0.20092
       6 -> 17         0.10665
       9 -> 20         0.57598

 Excited State  56:      Singlet-B1    20.4700 eV   60.57 nm  f=0.0058  <S**2>=0.000
      10 -> 22        -0.10264
      11 -> 21        -0.11055
      12 -> 23        -0.20003
      12 -> 24         0.64848

 Excited State  57:      Singlet-A1    20.5593 eV   60.31 nm  f=0.0029  <S**2>=0.000
       5 -> 13         0.21177
       5 -> 17         0.18229
       6 -> 14         0.13490
       6 -> 16         0.54835
      11 -> 23         0.15070
      11 -> 24        -0.22798
      12 -> 21         0.12757

 Excited State  58:      Singlet-B2    20.8414 eV   59.49 nm  f=0.0731  <S**2>=0.000
       5 -> 16        -0.24463
       6 -> 13        -0.17420
       6 -> 17         0.18624
       7 -> 18        -0.11309
       8 -> 19         0.39482
       9 -> 20        -0.15260
      10 -> 21        -0.11526
      11 -> 22        -0.36457
      11 -> 25        -0.12280

 Excited State  59:      Singlet-B1    20.8686 eV   59.41 nm  f=0.0000  <S**2>=0.000
       5 -> 15         0.66747
      11 -> 21        -0.10927
      12 -> 24        -0.12455

 Excited State  60:      Singlet-A1    21.0788 eV   58.82 nm  f=0.0108  <S**2>=0.000
       5 -> 17         0.57509
       6 -> 16        -0.20823
      11 -> 23         0.29764

 Excited State  61:      Singlet-A2    21.0990 eV   58.76 nm  f=0.0000  <S**2>=0.000
       7 -> 19         0.68353

 Excited State  62:      Singlet-B2    21.3416 eV   58.10 nm  f=0.0001  <S**2>=0.000
       5 -> 14         0.27558
       5 -> 16         0.59252
       8 -> 19         0.16538
      11 -> 22        -0.12293

 Excited State  63:      Singlet-A1    21.3600 eV   58.04 nm  f=0.5192  <S**2>=0.000
       5 -> 17        -0.27910
       6 -> 16        -0.16222
      11 -> 23         0.55907
      11 -> 24        -0.17553

 Excited State  64:      Singlet-B1    21.9189 eV   56.56 nm  f=0.0112  <S**2>=0.000
       5 -> 15         0.12010
       6 -> 18         0.68666

 Excited State  65:      Singlet-A2    22.2509 eV   55.72 nm  f=0.0000  <S**2>=0.000
       9 -> 21         0.22717
      12 -> 25         0.65306

 Excited State  66:      Singlet-A1    22.3277 eV   55.53 nm  f=0.2558  <S**2>=0.000
       5 -> 17        -0.10093
       6 -> 16         0.14072
       8 -> 20         0.20763
       9 -> 19         0.10065
       9 -> 22         0.30896
      11 -> 23         0.17127
      11 -> 24         0.49537
      12 -> 21         0.11337

 Excited State  67:      Singlet-B1    22.3495 eV   55.48 nm  f=0.0907  <S**2>=0.000
      10 -> 22         0.68058
      12 -> 24         0.11732

 Excited State  68:      Singlet-A2    22.5857 eV   54.90 nm  f=0.0000  <S**2>=0.000
       9 -> 21         0.61315
      10 -> 23         0.27587
      12 -> 25        -0.19067

 Excited State  69:      Singlet-B2    22.6937 eV   54.63 nm  f=0.3152  <S**2>=0.000
       9 -> 23         0.22546
      10 -> 21         0.61892
      11 -> 25        -0.21388

 Excited State  70:      Singlet-A2    22.7146 eV   54.58 nm  f=0.0000  <S**2>=0.000
       5 -> 18         0.67770
      10 -> 23        -0.14619

 Excited State  71:      Singlet-A1    22.8279 eV   54.31 nm  f=0.0049  <S**2>=0.000
       8 -> 20         0.50875
       9 -> 22        -0.47310

 Excited State  72:      Singlet-A2    23.1624 eV   53.53 nm  f=0.0000  <S**2>=0.000
       5 -> 18         0.13617
       9 -> 21        -0.21068
      10 -> 23         0.52409
      10 -> 24        -0.32255
      12 -> 25         0.13893

 Excited State  73:      Singlet-B2    23.3728 eV   53.05 nm  f=0.0276  <S**2>=0.000
       9 -> 23         0.40083
       9 -> 24        -0.18920
      11 -> 25         0.52738

 Excited State  74:      Singlet-B1    23.6334 eV   52.46 nm  f=0.1338  <S**2>=0.000
       7 -> 20         0.64566
       8 -> 21        -0.14035
      10 -> 25        -0.10472
      12 -> 26        -0.16154

 Excited State  75:      Singlet-A2    23.7895 eV   52.12 nm  f=0.0000  <S**2>=0.000
       7 -> 22         0.16778
      10 -> 23         0.30834
      10 -> 24         0.58351

 Excited State  76:      Singlet-B2    23.8037 eV   52.09 nm  f=0.1058  <S**2>=0.000
       9 -> 23         0.38591
       9 -> 24         0.53008
      10 -> 21        -0.12771
      12 -> 27         0.13218

 Excited State  77:      Singlet-A1    23.9523 eV   51.76 nm  f=0.2005  <S**2>=0.000
       6 -> 19         0.27031
       8 -> 20         0.35578
       9 -> 22         0.32486
      10 -> 27        -0.13426
      11 -> 24        -0.25074
      12 -> 28         0.22743

 Excited State  78:      Singlet-B1    24.2370 eV   51.16 nm  f=0.0387  <S**2>=0.000
       7 -> 20         0.12881
       8 -> 21        -0.18197
      12 -> 26         0.66326

 Excited State  79:      Singlet-A1    24.5303 eV   50.54 nm  f=0.0269  <S**2>=0.000
       6 -> 19         0.56650
       7 -> 21        -0.13530
      12 -> 28        -0.35813

 Excited State  80:      Singlet-B2    24.6181 eV   50.36 nm  f=0.0598  <S**2>=0.000
      12 -> 27         0.67899

 Excited State  81:      Singlet-B2    24.6371 eV   50.32 nm  f=0.2958  <S**2>=0.000
       5 -> 19        -0.12456
       8 -> 19         0.12228
       8 -> 22         0.21730
       9 -> 23        -0.31080
       9 -> 24         0.35428
      10 -> 21         0.20689
      11 -> 25         0.31620
      11 -> 29         0.10605

 Excited State  82:      Singlet-A1    24.7139 eV   50.17 nm  f=0.0052  <S**2>=0.000
       6 -> 19         0.24444
       7 -> 21        -0.13576
       8 -> 20        -0.17037
       9 -> 22        -0.16569
      11 -> 24         0.11631
      11 -> 26        -0.11176
      12 -> 28         0.54595

 Excited State  83:      Singlet-A1    25.0298 eV   49.53 nm  f=0.0006  <S**2>=0.000
      11 -> 26         0.68295

 Excited State  84:      Singlet-B2    25.0903 eV   49.42 nm  f=0.2019  <S**2>=0.000
       5 -> 19         0.29110
       8 -> 22         0.59846

 Excited State  85:      Singlet-B1    25.1206 eV   49.36 nm  f=0.0277  <S**2>=0.000
       7 -> 20         0.17966
       7 -> 23        -0.10436
       8 -> 21         0.54397
      10 -> 25         0.36926

 Excited State  86:      Singlet-A2    25.1885 eV   49.22 nm  f=0.0000  <S**2>=0.000
      11 -> 27         0.66476
      12 -> 29        -0.21069

 Excited State  87:      Singlet-B1    25.2455 eV   49.11 nm  f=0.0032  <S**2>=0.000
      11 -> 28         0.69831

 Excited State  88:      Singlet-A2    25.3398 eV   48.93 nm  f=0.0000  <S**2>=0.000
       7 -> 22         0.14420
      10 -> 23         0.10965
      11 -> 27         0.20350
      12 -> 29         0.63490

 Excited State  89:      Singlet-B2    25.4338 eV   48.75 nm  f=0.0040  <S**2>=0.000
       5 -> 19         0.60046
       8 -> 22        -0.22666
       9 -> 24         0.12630
      10 -> 28        -0.10848
      12 -> 31         0.10265

 Excited State  90:      Singlet-B1    25.6174 eV   48.40 nm  f=0.2088  <S**2>=0.000
       7 -> 23         0.11721
       8 -> 21        -0.34652
      10 -> 25         0.54554
      10 -> 30         0.12714
      12 -> 26        -0.10674

 Excited State  91:      Singlet-A1    25.7204 eV   48.20 nm  f=0.0280  <S**2>=0.000
       7 -> 21        -0.30676
       8 -> 23         0.40586
       8 -> 24         0.13233
       9 -> 25         0.45421

 Excited State  92:      Singlet-A1    25.8467 eV   47.97 nm  f=0.0021  <S**2>=0.000
       8 -> 23         0.48021
       8 -> 24        -0.26676
       9 -> 25        -0.40610

 Excited State  93:      Singlet-A2    25.8957 eV   47.88 nm  f=0.0000  <S**2>=0.000
       7 -> 22         0.24411
      10 -> 24        -0.12209
      12 -> 30         0.63292

 Excited State  94:      Singlet-B2    26.0999 eV   47.50 nm  f=0.0000  <S**2>=0.000
       5 -> 19         0.11618
       6 -> 20        -0.11551
      11 -> 29         0.66201

 Excited State  95:      Singlet-A2    26.1592 eV   47.40 nm  f=0.0000  <S**2>=0.000
       7 -> 22         0.61461
      10 -> 24        -0.14938
      12 -> 29        -0.10902
      12 -> 30        -0.28538

 Excited State  96:      Singlet-A1    26.2457 eV   47.24 nm  f=0.0031  <S**2>=0.000
       6 -> 19         0.13477
       7 -> 21         0.57300
       8 -> 23         0.22518
       8 -> 24        -0.13258
       9 -> 25         0.21935
      10 -> 27         0.12592

 Excited State  97:      Singlet-B2    26.5674 eV   46.67 nm  f=0.0953  <S**2>=0.000
       6 -> 20         0.41549
       8 -> 25        -0.11331
      10 -> 28        -0.24812
      11 -> 30         0.46879

 Excited State  98:      Singlet-B1    26.6058 eV   46.60 nm  f=0.0140  <S**2>=0.000
       7 -> 23         0.64835
       7 -> 24        -0.12780
       8 -> 21         0.10117
      10 -> 29         0.14701

 Excited State  99:      Singlet-A1    26.8117 eV   46.24 nm  f=0.0212  <S**2>=0.000
       5 -> 20         0.13538
       6 -> 19         0.10737
       6 -> 22         0.14174
       7 -> 21         0.10172
       8 -> 23         0.15311
       8 -> 24         0.57957
       9 -> 25        -0.19585
      12 -> 33        -0.10919

 Excited State 100:      Singlet-B2    26.9189 eV   46.06 nm  f=0.0695  <S**2>=0.000
       6 -> 20         0.48648
       8 -> 25        -0.13242
      11 -> 29         0.10360
      11 -> 30        -0.45388

 Excited State 101:      Singlet-A2    27.2395 eV   45.52 nm  f=0.0000  <S**2>=0.000
      10 -> 26         0.67513
      12 -> 29         0.10550

 Excited State 102:      Singlet-B1    27.4505 eV   45.17 nm  f=0.0200  <S**2>=0.000
       7 -> 23         0.10461
       7 -> 24         0.66516
      10 -> 25         0.13474
      10 -> 29         0.13129

 Excited State 103:      Singlet-B2    27.6473 eV   44.84 nm  f=0.0000  <S**2>=0.000
       6 -> 20         0.12458
       9 -> 26         0.56787
      10 -> 28         0.37935

 Excited State 104:      Singlet-B2    27.9050 eV   44.43 nm  f=0.0017  <S**2>=0.000
       6 -> 20         0.18655
       8 -> 25         0.49594
       9 -> 26        -0.19636
      10 -> 28         0.20695
      11 -> 30         0.11090
      12 -> 31        -0.32960

 Excited State 105:      Singlet-B1    27.9285 eV   44.39 nm  f=0.0076  <S**2>=0.000
       9 -> 27         0.64738
      10 -> 29         0.24001

 Excited State 106:      Singlet-A1    27.9446 eV   44.37 nm  f=0.0202  <S**2>=0.000
       5 -> 20         0.62529
       9 -> 25         0.11112
      10 -> 27        -0.28365

 Excited State 107:      Singlet-A2    27.9901 eV   44.30 nm  f=0.0000  <S**2>=0.000
       9 -> 28         0.69726

 Excited State 108:      Singlet-B1    28.2293 eV   43.92 nm  f=0.1309  <S**2>=0.000
       7 -> 23        -0.17656
       7 -> 24        -0.10370
       7 -> 26         0.10112
       9 -> 27        -0.21761
      10 -> 29         0.59810
      10 -> 30         0.12179

 Excited State 109:      Singlet-A1    28.2480 eV   43.89 nm  f=0.0014  <S**2>=0.000
       5 -> 20         0.17655
       8 -> 26        -0.16788
       9 -> 29         0.40001
      10 -> 27         0.47311

 Excited State 110:      Singlet-B2    28.2504 eV   43.89 nm  f=0.1544  <S**2>=0.000
       9 -> 26        -0.31317
      10 -> 28         0.37907
      11 -> 30         0.12755
      12 -> 31         0.45099

 Excited State 111:      Singlet-A2    28.8080 eV   43.04 nm  f=0.0000  <S**2>=0.000
       6 -> 21         0.34056
       7 -> 25         0.57964
      11 -> 31        -0.19067

 Excited State 112:      Singlet-B2    29.0311 eV   42.71 nm  f=0.4856  <S**2>=0.000
       7 -> 27         0.11918
       8 -> 25         0.43780
       8 -> 29         0.12507
       9 -> 26         0.11945
      10 -> 28        -0.20280
      12 -> 31         0.38874

 Excited State 113:      Singlet-A1    29.0661 eV   42.66 nm  f=0.1421  <S**2>=0.000
       5 -> 20        -0.15854
       6 -> 22         0.44459
       9 -> 29         0.44422
       9 -> 30         0.12056
      10 -> 27        -0.17888

 Excited State 114:      Singlet-A2    29.1042 eV   42.60 nm  f=0.0000  <S**2>=0.000
       6 -> 21        -0.10131

 The electronic state is 1-A1.
 Alpha  occ. eigenvalues --  -19.26680 -10.35084 -10.35063  -1.18028  -0.75929
 Alpha  occ. eigenvalues --   -0.72434  -0.60485  -0.57205  -0.49020  -0.46691
 Alpha  occ. eigenvalues --   -0.39749  -0.35601
 Alpha virt. eigenvalues --    0.15360   0.17525   0.18555   0.20277   0.20984
 Alpha virt. eigenvalues --    0.25227   0.37122   0.46918   0.54309   0.56285
 Alpha virt. eigenvalues --    0.57903   0.62235   0.66617   0.72177   0.74005

 Mulliken charges:
               1
     1  C    0.066241
     2  C    0.066241
     3  O   -0.352777
     4  H    0.055074
     5  H    0.055074
     6  H    0.055074
     7  H    0.055074
 Sum of Mulliken charges =   0.00000

 Dipole moment (field-independent basis, Debye):
    X=             -0.0000    Y=              0.0000    Z=             -1.9341  Tot=              1.9341
 Quadrupole moment (field-independent basis, Debye-Ang):
   XX=            -17.1665   YY=            -16.3921   ZZ=            -20.4205
   XY=             -0.0000   XZ=              0.0000   YZ=              0.0000

 Normal termination of Gaussian 16 at Sat Aug 14 07:23:34 2021.
