 Gaussian 16, Revision C.01,
 Gaussian 16:  EM64L-G16RevC.01  3-Jul-2019

 ----------------------------------------------------------------------
 #P TD(Nstates=10000) wB97XD/def2SVP SCF(maxcycles=100) Int(Grid=ultraf
 ine)
 ----------------------------------------------------------------------

 ---------------------
 xGDB7_00001_tier4.com
 ---------------------
 Symbolic Z-matrix:
 Charge =  0 Multiplicity = 1

                         Standard orientation:
 ---------------------------------------------------------------------
 Center     Atomic      Atomic             Coordinates (Angstroms)
 Number     Number       Type             X           Y           Z
 ---------------------------------------------------------------------
      1          8           0       -1.032262   -0.375556    0.000000
      2          7           0       -0.000000    0.520019   -0.000000
      3          6           0        1.135343   -0.046739   -0.000000
      4          1           0       -1.816691    0.181727    0.000000
      5          1           0        2.013490    0.602485   -0.000000
      6          1           0        1.249236   -1.139460   -0.000000
 ---------------------------------------------------------------------

 SCF Done:  E(RwB97XD) =  -169.626089039     A.U. after   15 cycles

 Excitation energies and oscillator strengths:

 Excited State   1:      Singlet-A"     5.9228 eV  209.33 nm  f=0.0030  <S**2>=0.000
      11 -> 13         0.70630
 This state for optimization and/or second-order correction.
 Total Energy, E(TD-HF/TD-DFT) =  -169.408428726
 Copying the excited state density for this state as the 1-particle RhoCI density.

 Excited State   2:      Singlet-A'     7.2282 eV  171.53 nm  f=0.1942  <S**2>=0.000
      12 -> 13         0.68422

 Excited State   3:      Singlet-A"     8.1948 eV  151.30 nm  f=0.0008  <S**2>=0.000
      12 -> 14         0.69276

 Excited State   4:      Singlet-A'     8.7100 eV  142.35 nm  f=0.0342  <S**2>=0.000
      11 -> 14         0.69399

 Excited State   5:      Singlet-A"     9.2531 eV  133.99 nm  f=0.0000  <S**2>=0.000
      12 -> 15         0.58955
      12 -> 16         0.34098
      12 -> 17         0.14231

 Excited State   6:      Singlet-A"     9.7018 eV  127.80 nm  f=0.0016  <S**2>=0.000
       8 -> 13         0.11257
      10 -> 13         0.68129
      12 -> 15         0.10428

 Excited State   7:      Singlet-A"     9.9064 eV  125.16 nm  f=0.0039  <S**2>=0.000
      10 -> 13         0.14650
      12 -> 15        -0.34800
      12 -> 16         0.56423
      12 -> 17         0.12246

 Excited State   8:      Singlet-A'    10.0680 eV  123.15 nm  f=0.1045  <S**2>=0.000
      11 -> 15         0.68528

 Excited State   9:      Singlet-A'    10.4768 eV  118.34 nm  f=0.1499  <S**2>=0.000
      11 -> 15        -0.10484
      11 -> 16         0.66769
      11 -> 17         0.16095

 Excited State  10:      Singlet-A'    11.0626 eV  112.07 nm  f=0.0708  <S**2>=0.000
       9 -> 13         0.65373
      11 -> 17         0.19744

 Excited State  11:      Singlet-A"    11.2147 eV  110.56 nm  f=0.0001  <S**2>=0.000
       8 -> 13         0.67576
      12 -> 17        -0.12409

 Excited State  12:      Singlet-A"    11.6468 eV  106.45 nm  f=0.0059  <S**2>=0.000
       8 -> 13         0.13232
      12 -> 16        -0.16725
      12 -> 17         0.65522

 Excited State  13:      Singlet-A'    12.3399 eV  100.47 nm  f=0.1455  <S**2>=0.000
       9 -> 13        -0.17841
      11 -> 16        -0.17051
      11 -> 17         0.64245

 Excited State  14:      Singlet-A"    12.4552 eV   99.54 nm  f=0.0164  <S**2>=0.000
       9 -> 14         0.67106
       9 -> 15         0.11128
      12 -> 16         0.10591

 Excited State  15:      Singlet-A'    12.9071 eV   96.06 nm  f=0.3503  <S**2>=0.000
       7 -> 14         0.11003
       8 -> 14        -0.20227
      10 -> 14         0.64217

 Excited State  16:      Singlet-A"    12.9903 eV   95.44 nm  f=0.0111  <S**2>=0.000
       7 -> 13         0.66135
      12 -> 18         0.19089

 Excited State  17:      Singlet-A"    13.2598 eV   93.50 nm  f=0.0580  <S**2>=0.000
       7 -> 13        -0.16920
       9 -> 15         0.13256
       9 -> 16         0.19980
       9 -> 17         0.11103
      12 -> 17        -0.10739
      12 -> 18         0.61258

 Excited State  18:      Singlet-A'    13.3888 eV   92.60 nm  f=0.2317  <S**2>=0.000
      10 -> 15         0.68691

 Excited State  19:      Singlet-A'    13.6915 eV   90.56 nm  f=0.0075  <S**2>=0.000
       8 -> 14        -0.33541
      10 -> 16        -0.14618
      11 -> 18         0.58125

 Excited State  20:      Singlet-A"    13.7409 eV   90.23 nm  f=0.0006  <S**2>=0.000
       6 -> 13        -0.10808
       9 -> 14        -0.11808
       9 -> 15         0.51163
       9 -> 16         0.35298
       9 -> 17         0.15554
      12 -> 18        -0.21290

 Excited State  21:      Singlet-A'    14.1073 eV   87.89 nm  f=0.2648  <S**2>=0.000
       8 -> 14         0.55237
      10 -> 14         0.19593
      11 -> 18         0.35553

 Excited State  22:      Singlet-A"    14.5578 eV   85.17 nm  f=0.0001  <S**2>=0.000
       9 -> 15        -0.44370
       9 -> 16         0.49145
       9 -> 17         0.16698
       9 -> 18         0.11259

 Excited State  23:      Singlet-A'    14.6268 eV   84.77 nm  f=0.0388  <S**2>=0.000
       8 -> 14        -0.10449
       8 -> 15        -0.11861
      10 -> 14        -0.13042
      10 -> 16         0.63791
      10 -> 17         0.10717

 Excited State  24:      Singlet-A'    15.3372 eV   80.84 nm  f=0.0363  <S**2>=0.000
       8 -> 15         0.59673
       8 -> 16         0.25747
      10 -> 16         0.12393
      10 -> 17        -0.14702

 Excited State  25:      Singlet-A'    15.7896 eV   78.52 nm  f=0.1800  <S**2>=0.000
       7 -> 14         0.16695
       8 -> 15        -0.25921
       8 -> 16         0.58806
       8 -> 17         0.10836
      10 -> 18        -0.10902

 Excited State  26:      Singlet-A"    15.8241 eV   78.35 nm  f=0.1108  <S**2>=0.000
       6 -> 13         0.67383

 Excited State  27:      Singlet-A'    15.9948 eV   77.52 nm  f=0.0378  <S**2>=0.000
       7 -> 14         0.43111
       8 -> 15         0.17777
      10 -> 17         0.47683

 Excited State  28:      Singlet-A"    16.1580 eV   76.73 nm  f=0.0002  <S**2>=0.000
       9 -> 16        -0.25745
       9 -> 17         0.64347

 Excited State  29:      Singlet-A'    16.3484 eV   75.84 nm  f=0.0194  <S**2>=0.000
       7 -> 14         0.47773
       8 -> 16        -0.15538
      10 -> 17        -0.44868

 Excited State  30:      Singlet-A'    16.9115 eV   73.31 nm  f=0.1919  <S**2>=0.000
       7 -> 15         0.62475
       7 -> 16         0.20862
       8 -> 17        -0.14134

 Excited State  31:      Singlet-A'    17.2580 eV   71.84 nm  f=0.0797  <S**2>=0.000
       6 -> 14        -0.14746
       7 -> 15         0.24898
       7 -> 16        -0.37061
       8 -> 17         0.41959
      10 -> 18        -0.27245

 Excited State  32:      Singlet-A'    17.7056 eV   70.03 nm  f=0.0111  <S**2>=0.000
       6 -> 14        -0.10208
       7 -> 15         0.10557
       7 -> 16        -0.39649
       8 -> 16         0.13017
       8 -> 17        -0.13582
       8 -> 18         0.10564
      10 -> 18         0.49203

 Excited State  33:      Singlet-A"    17.7304 eV   69.93 nm  f=0.0199  <S**2>=0.000
       9 -> 18         0.66145
      12 -> 19         0.19111

 Excited State  34:      Singlet-A'    18.0983 eV   68.51 nm  f=0.2096  <S**2>=0.000
       7 -> 16         0.25874
       8 -> 17         0.49301
      10 -> 18         0.36294
      12 -> 20        -0.11621

 Excited State  35:      Singlet-A'    18.3989 eV   67.39 nm  f=0.1284  <S**2>=0.000
       6 -> 14         0.61247
       6 -> 15         0.13096
       7 -> 14         0.12991
       7 -> 16        -0.16946
       7 -> 17        -0.10790
       8 -> 18         0.11150

 Excited State  36:      Singlet-A"    18.6431 eV   66.50 nm  f=0.3974  <S**2>=0.000
       6 -> 13        -0.10329
       9 -> 18        -0.17639
      12 -> 19         0.66616

 Excited State  37:      Singlet-A'    18.9864 eV   65.30 nm  f=0.0885  <S**2>=0.000
       6 -> 14        -0.16289
       6 -> 15         0.47152
       7 -> 16         0.10948
       7 -> 17        -0.22597
       8 -> 18         0.33438
      12 -> 20        -0.21914

 Excited State  38:      Singlet-A'    19.1360 eV   64.79 nm  f=0.0532  <S**2>=0.000
       7 -> 17         0.11670
      11 -> 19         0.67999

 Excited State  39:      Singlet-A'    19.3979 eV   63.92 nm  f=0.0949  <S**2>=0.000
       6 -> 15         0.40312
       7 -> 17         0.48578
       8 -> 18        -0.21547
      11 -> 19        -0.10422

 Excited State  40:      Singlet-A'    19.5567 eV   63.40 nm  f=0.1738  <S**2>=0.000
       6 -> 15        -0.15345
       7 -> 17         0.38166
       7 -> 18        -0.10421
       8 -> 18         0.52446

 Excited State  41:      Singlet-A'    19.9150 eV   62.26 nm  f=0.0196  <S**2>=0.000
       6 -> 14        -0.11014
       6 -> 16         0.56522
      12 -> 20         0.34828

 Excited State  42:      Singlet-A"    20.0951 eV   61.70 nm  f=0.0440  <S**2>=0.000
      11 -> 20         0.69936

 Excited State  43:      Singlet-A'    20.6721 eV   59.98 nm  f=0.0210  <S**2>=0.000
       6 -> 15         0.18857
       6 -> 16        -0.35486
       6 -> 17         0.14049
       7 -> 16         0.11317
      11 -> 22         0.19380
      12 -> 20         0.46293

 Excited State  44:      Singlet-A'    21.2068 eV   58.46 nm  f=0.0501  <S**2>=0.000
       7 -> 18         0.66734
      11 -> 21        -0.10919

 Excited State  45:      Singlet-A"    21.3822 eV   57.98 nm  f=0.0090  <S**2>=0.000
      12 -> 21         0.60061
      12 -> 22         0.34844

 Excited State  46:      Singlet-A"    21.4092 eV   57.91 nm  f=0.0153  <S**2>=0.000
       5 -> 13        -0.35991
      12 -> 21        -0.33620
      12 -> 22         0.49439

 Excited State  47:      Singlet-A'    21.7846 eV   56.91 nm  f=0.1419  <S**2>=0.000
       6 -> 17         0.60324
      10 -> 19         0.10526
      11 -> 21         0.29780

 Excited State  48:      Singlet-A"    22.1531 eV   55.97 nm  f=0.0007  <S**2>=0.000
       5 -> 13         0.58902
      12 -> 21        -0.12058
      12 -> 22         0.34373

 Excited State  49:      Singlet-A'    22.3179 eV   55.55 nm  f=0.3552  <S**2>=0.000
       6 -> 18         0.11408
      11 -> 21         0.13196
      11 -> 22         0.62497
      12 -> 20        -0.13498

 Excited State  50:      Singlet-A'    22.5222 eV   55.05 nm  f=0.0779  <S**2>=0.000
       6 -> 17        -0.24928
       6 -> 18         0.14818
      10 -> 19         0.10100
      11 -> 21         0.55657
      11 -> 22        -0.18080
      11 -> 26        -0.10775

 Excited State  51:      Singlet-A'    22.9095 eV   54.12 nm  f=0.1341  <S**2>=0.000
       6 -> 18         0.25355
      10 -> 19         0.58559
      11 -> 21        -0.17690

 Excited State  52:      Singlet-A"    23.2077 eV   53.42 nm  f=0.0620  <S**2>=0.000
       9 -> 19         0.60379
      10 -> 20        -0.33738

 Excited State  53:      Singlet-A'    23.2550 eV   53.32 nm  f=0.0222  <S**2>=0.000
       6 -> 17         0.10625
       6 -> 18         0.60693
       8 -> 19        -0.11859
      10 -> 19        -0.26369

 Excited State  54:      Singlet-A"    23.2717 eV   53.28 nm  f=0.0761  <S**2>=0.000
       8 -> 20         0.12391
       9 -> 19         0.34951
      10 -> 20         0.58687

 Excited State  55:      Singlet-A"    23.5517 eV   52.64 nm  f=0.0123  <S**2>=0.000
       9 -> 21         0.13221
      12 -> 23         0.58811
      12 -> 24         0.15723
      12 -> 25         0.29337

 Excited State  56:      Singlet-A"    24.0209 eV   51.62 nm  f=0.0017  <S**2>=0.000
      12 -> 23        -0.22844
      12 -> 24         0.64497
      12 -> 25         0.10791

 Excited State  57:      Singlet-A'    24.0837 eV   51.48 nm  f=0.0003  <S**2>=0.000
       5 -> 14        -0.19265
      11 -> 23         0.60826
      11 -> 24         0.13763
      11 -> 25         0.16516

 Excited State  58:      Singlet-A'    24.2726 eV   51.08 nm  f=0.0405  <S**2>=0.000
       7 -> 19         0.15496
       8 -> 19         0.65323

 Excited State  59:      Singlet-A"    24.3539 eV   50.91 nm  f=0.0106  <S**2>=0.000
       9 -> 21         0.10112
      12 -> 23        -0.26796
      12 -> 24        -0.20183
      12 -> 25         0.59929

 Excited State  60:      Singlet-A'    24.4538 eV   50.70 nm  f=0.0080  <S**2>=0.000
       8 -> 19         0.10743
       9 -> 20         0.66510

 Excited State  61:      Singlet-A'    24.8572 eV   49.88 nm  f=0.0084  <S**2>=0.000
       5 -> 14         0.42994
       9 -> 20        -0.12193
      10 -> 22        -0.11042
      11 -> 23         0.24418
      11 -> 24        -0.42620
      11 -> 25        -0.10577

 Excited State  62:      Singlet-A'    25.0327 eV   49.53 nm  f=0.0174  <S**2>=0.000
       5 -> 14        -0.27506
      11 -> 23        -0.13058
      11 -> 24        -0.42369
      11 -> 25         0.44494

 Excited State  63:      Singlet-A"    25.2390 eV   49.12 nm  f=0.0261  <S**2>=0.000
       7 -> 20         0.20537
       8 -> 20         0.65081
      10 -> 20        -0.11475

 Excited State  64:      Singlet-A'    25.4682 eV   48.68 nm  f=0.0422  <S**2>=0.000
       5 -> 14         0.41675
       7 -> 19         0.13381
      10 -> 22         0.13851
      11 -> 24         0.19045
      11 -> 25         0.43290
      11 -> 26         0.12932

 Excited State  65:      Singlet-A"    25.6060 eV   48.42 nm  f=0.0017  <S**2>=0.000
       9 -> 21        -0.31554
       9 -> 22        -0.19922
      12 -> 26         0.58523

 Excited State  66:      Singlet-A'    25.7171 eV   48.21 nm  f=0.0079  <S**2>=0.000
       5 -> 15         0.66707
       5 -> 16         0.12061
      10 -> 22        -0.10929

 Excited State  67:      Singlet-A'    25.9267 eV   47.82 nm  f=0.0469  <S**2>=0.000
       5 -> 15        -0.10976
       7 -> 19         0.57865
       8 -> 19        -0.11870
      10 -> 21        -0.20142
      10 -> 22        -0.25153

 Excited State  68:      Singlet-A"    25.9503 eV   47.78 nm  f=0.0025  <S**2>=0.000
       9 -> 21         0.54494
       9 -> 22        -0.35252
      12 -> 25        -0.16756
      12 -> 26         0.17374

 Excited State  69:      Singlet-A"    26.0506 eV   47.59 nm  f=0.0007  <S**2>=0.000
       9 -> 21         0.25597
       9 -> 22         0.55754
      12 -> 26         0.33803

 Excited State  70:      Singlet-A'    26.1182 eV   47.47 nm  f=0.1215  <S**2>=0.000
       7 -> 19         0.28053
       8 -> 22         0.10360
      10 -> 21         0.27094
      10 -> 22         0.46788
      10 -> 24         0.15628
      11 -> 24        -0.14832
      11 -> 26        -0.14101

 Excited State  71:      Singlet-A'    26.4617 eV   46.85 nm  f=0.2021  <S**2>=0.000
       5 -> 15        -0.10369
       5 -> 16         0.33505
       8 -> 21        -0.16130
       8 -> 22         0.20123
      10 -> 21         0.44973
      10 -> 22        -0.22259
      11 -> 25         0.11262

 Excited State  72:      Singlet-A'    26.5608 eV   46.68 nm  f=0.0009  <S**2>=0.000
       5 -> 16         0.17052
      10 -> 24         0.11172
      11 -> 26         0.52984
      12 -> 27        -0.31739

 Excited State  73:      Singlet-A'    26.6401 eV   46.54 nm  f=0.0345  <S**2>=0.000
       5 -> 16         0.52118
       5 -> 17         0.10848
       8 -> 22        -0.13798
      10 -> 21        -0.27214
      10 -> 22         0.26336
      11 -> 26        -0.14744

 Excited State  74:      Singlet-A"    26.8943 eV   46.10 nm  f=0.0035  <S**2>=0.000
       7 -> 20         0.63954
       8 -> 20        -0.19596
      10 -> 20         0.12343
      11 -> 27         0.15740

 Excited State  75:      Singlet-A"    27.3025 eV   45.41 nm  f=0.0621  <S**2>=0.000
       7 -> 20        -0.15755
      11 -> 27         0.68269

 Excited State  76:      Singlet-A'    27.4551 eV   45.16 nm  f=0.0829  <S**2>=0.000
       5 -> 16         0.15069
       8 -> 21         0.58669
       8 -> 22        -0.18032
      10 -> 21         0.14786
      10 -> 25        -0.10299

 Excited State  77:      Singlet-A'    27.5554 eV   44.99 nm  f=0.1777  <S**2>=0.000
       5 -> 17         0.12534
       6 -> 19         0.13321
       7 -> 21         0.10571
       8 -> 21         0.22132
       8 -> 22         0.50293
      10 -> 21        -0.16035
      10 -> 23         0.28312
      12 -> 27        -0.14942

 Excited State  78:      Singlet-A'    27.9206 eV   44.41 nm  f=0.2274  <S**2>=0.000
       5 -> 17        -0.29175
       8 -> 22         0.21064
      10 -> 21        -0.14635
      10 -> 24         0.15865
      11 -> 26         0.15550
      12 -> 27         0.47038

 Excited State  79:      Singlet-A"    28.0569 eV   44.19 nm  f=0.0558  <S**2>=0.000
       9 -> 23         0.56876
       9 -> 24         0.12306
       9 -> 25         0.36971

 Excited State  80:      Singlet-A'    28.1430 eV   44.06 nm  f=0.0318  <S**2>=0.000
       5 -> 17         0.37286
       6 -> 19        -0.26067
       7 -> 22        -0.11546
       8 -> 21         0.13401
       8 -> 24         0.11034
      10 -> 23        -0.31654
      10 -> 24         0.31073

 Excited State  81:      Singlet-A'    28.2994 eV   43.81 nm  f=0.0306  <S**2>=0.000
       6 -> 19         0.58839
      10 -> 23        -0.30975

 Excited State  82:      Singlet-A'    28.3796 eV   43.69 nm  f=0.0300  <S**2>=0.000
       5 -> 17         0.43214
       5 -> 18         0.15275
       8 -> 23         0.18962
      10 -> 23         0.15880
      10 -> 24        -0.21374
      10 -> 25        -0.14688
      11 -> 26         0.15119
      12 -> 27         0.25459

 Excited State  83:      Singlet-A"    28.6830 eV   43.23 nm  f=0.0008  <S**2>=0.000
       4 -> 13         0.66588
       9 -> 23        -0.13963
       9 -> 25         0.11573

 Excited State  84:      Singlet-A'    28.7798 eV   43.08 nm  f=0.0250  <S**2>=0.000
       6 -> 19         0.13309
       7 -> 22        -0.23851
       8 -> 22        -0.20277
      10 -> 21         0.10449
      10 -> 22        -0.12911
      10 -> 23         0.37671
      10 -> 24         0.28683
      10 -> 25         0.24132
      10 -> 26         0.13646

 Excited State  85:      Singlet-A"    28.8475 eV   42.98 nm  f=0.0000  <S**2>=0.000
       9 -> 23        -0.22257
       9 -> 24         0.64987
       9 -> 25         0.11571

 Excited State  86:      Singlet-A"    29.0270 eV   42.71 nm  f=0.0003  <S**2>=0.000
       4 -> 13        -0.20278
       9 -> 23        -0.26507
       9 -> 24        -0.18067
       9 -> 25         0.54010
       9 -> 26        -0.21311

 Excited State  87:      Singlet-A'    29.0417 eV   42.69 nm  f=0.0477  <S**2>=0.000
       7 -> 21         0.18360
       7 -> 22         0.44032
       8 -> 22        -0.11932
       8 -> 24         0.18230
      10 -> 24         0.32338
      10 -> 25        -0.21586

 Excited State  88:      Singlet-A"    29.2176 eV   42.43 nm  f=0.0226  <S**2>=0.000
       6 -> 20         0.68246
       7 -> 20        -0.10864

 Excited State  89:      Singlet-A'    29.4648 eV   42.08 nm  f=0.0725  <S**2>=0.000
       5 -> 18        -0.20911
       7 -> 21         0.15521
       7 -> 22         0.22279
       7 -> 23         0.10290
       8 -> 23         0.39471
       8 -> 25         0.12122
      10 -> 25         0.39766

 Excited State  90:      Singlet-A'    29.5993 eV   41.89 nm  f=0.0488  <S**2>=0.000
       5 -> 18         0.26110
       7 -> 21         0.55740
       7 -> 22        -0.23754
       7 -> 25        -0.11286

 Excited State  91:      Singlet-A'    29.8441 eV   41.54 nm  f=0.0117  <S**2>=0.000
       5 -> 18         0.32688
       7 -> 22         0.26385
       8 -> 23        -0.25622
       8 -> 24         0.12590
       8 -> 25        -0.24896
      10 -> 24        -0.10847
      10 -> 25         0.30172
      11 -> 28        -0.14251

 Excited State  92:      Singlet-A"    29.9985 eV   41.33 nm  f=0.0141  <S**2>=0.000
       9 -> 23        -0.13355
       9 -> 24        -0.11784
       9 -> 25         0.14903
       9 -> 26         0.66000

 Excited State  93:      Singlet-A'    30.1073 eV   41.18 nm  f=0.0830  <S**2>=0.000
       5 -> 18        -0.40898
       7 -> 21         0.15390
       7 -> 22        -0.12634
       8 -> 24         0.42389
       8 -> 25        -0.18795
      10 -> 24        -0.11373

 Excited State  94:      Singlet-A'    30.2780 eV   40.95 nm  f=0.0653  <S**2>=0.000
       4 -> 14         0.16267
       5 -> 18         0.19347
       7 -> 21        -0.17932
       7 -> 24         0.10133
       8 -> 23         0.31250
       8 -> 24         0.35039
       9 -> 27        -0.15776
      10 -> 26        -0.18250
      11 -> 26        -0.11087
      11 -> 28         0.16003
      12 -> 27        -0.10277

 Excited State  95:      Singlet-A'    30.4961 eV   40.66 nm  f=0.0197  <S**2>=0.000
       7 -> 23         0.12207
       7 -> 24         0.10326
       7 -> 25        -0.10007
       8 -> 23         0.14585
       8 -> 25        -0.32288
      10 -> 25        -0.10145
      10 -> 26         0.55172

 Excited State  96:      Singlet-A"    30.4979 eV   40.65 nm  f=0.0005  <S**2>=0.000
      12 -> 28         0.69848

 Excited State  97:      Singlet-A'    30.6889 eV   40.40 nm  f=0.0635  <S**2>=0.000
       6 -> 21        -0.17601
       7 -> 23         0.21580
       8 -> 24         0.23110
       8 -> 25         0.32231
       8 -> 26        -0.20893
      10 -> 24        -0.11864
      10 -> 26         0.19439
      11 -> 28        -0.31074

 Excited State  98:      Singlet-A'    30.8112 eV   40.24 nm  f=0.1903  <S**2>=0.000
       4 -> 14        -0.23479
       6 -> 22         0.15824
       8 -> 23        -0.11506
       8 -> 24         0.10907
       8 -> 26        -0.11865
       9 -> 27         0.15449
      10 -> 25         0.10619
      10 -> 26         0.12446
      11 -> 28         0.48077
      12 -> 29         0.17499

 Excited State  99:      Singlet-A'    30.9759 eV   40.03 nm  f=0.0143  <S**2>=0.000
       4 -> 14         0.55746
       6 -> 22         0.17639
       7 -> 24        -0.15238
       8 -> 23        -0.11780
       8 -> 25         0.15223
      10 -> 26         0.11273

 The electronic state is 1-A'.
 Alpha  occ. eigenvalues --  -19.29831 -14.49885 -10.32967  -1.19100  -0.95065
 Alpha  occ. eigenvalues --   -0.70051  -0.62117  -0.55819  -0.50990  -0.50263
 Alpha  occ. eigenvalues --   -0.36215  -0.34946
 Alpha virt. eigenvalues --    0.07189   0.14556   0.17766   0.20593   0.28411
 Alpha virt. eigenvalues --    0.34307   0.52373   0.58112   0.64761   0.65987
 Alpha virt. eigenvalues --    0.71846   0.74570   0.76421   0.81656   0.88780

 Mulliken charges:
               1
     1  O   -0.229264
     2  N   -0.066249
     3  C   -0.036434
     4  H    0.196715
     5  H    0.075443
     6  H    0.059789
 Sum of Mulliken charges =  -0.00000

 Dipole moment (field-independent basis, Debye):
    X=              0.0060    Y=             -0.0709    Z=             -0.0000  Tot=              0.0712
 Quadrupole moment (field-independent basis, Debye-Ang):
   XX=            -11.6905   YY=            -19.0170   ZZ=            -18.5346
   XY=             -1.5353   XZ=              0.0000   YZ=              0.0000

 Normal termination of Gaussian 16 at Sat Aug 14 23:30:00 2021.
