 Gaussian 16, Revision C.01,
 Gaussian 16:  EM64L-G16RevC.01  3-Jul-2019

 ----------------------------------------------------------------------
 #P TD(Nstates=10000) wB97XD/def2SVP SCF(maxcycles=100) Int(Grid=ultraf
 ine)
 ----------------------------------------------------------------------

 ---------------------
 xGDB7_00001_tier4.com
 ---------------------
 Symbolic Z-matrix:
 Charge =  0 Multiplicity = 1

                         Standard orientation:
 ---------------------------------------------------------------------
 Center     Atomic      Atomic             Coordinates (Angstroms)
 Number     Number       Type             X           Y           Z
 ---------------------------------------------------------------------
      1          6           0       -0.026047   -0.217143    1.209876
      2          7           0       -0.026047    0.570772   -0.000000
      3          6           0       -0.026047   -0.217143   -1.209876
      4          1           0        0.013735    0.440621    2.090832
      5          1           0        0.813545   -0.943661    1.286149
      6          1           0       -0.961368   -0.797172    1.277991
      7          1           0        0.763067    1.210735   -0.000000
      8          1           0       -0.961368   -0.797172   -1.277991
      9          1           0        0.813545   -0.943661   -1.286149
     10          1           0        0.013735    0.440621   -2.090832
 ---------------------------------------------------------------------

 SCF Done:  E(RwB97XD) =  -135.022893432     A.U. after   13 cycles

 Excitation energies and oscillator strengths:

 Excited State   1:      Singlet-A'     6.8112 eV  182.03 nm  f=0.0119  <S**2>=0.000
      13 -> 14         0.67610
      13 -> 15        -0.17413
 This state for optimization and/or second-order correction.
 Total Energy, E(TD-HF/TD-DFT) =  -134.772585347
 Copying the excited state density for this state as the 1-particle RhoCI density.

 Excited State   2:      Singlet-A'     7.9941 eV  155.09 nm  f=0.0650  <S**2>=0.000
      13 -> 14         0.17298
      13 -> 15         0.68079

 Excited State   3:      Singlet-A"     8.6714 eV  142.98 nm  f=0.0022  <S**2>=0.000
      13 -> 16         0.70181

 Excited State   4:      Singlet-A'     8.9148 eV  139.08 nm  f=0.0061  <S**2>=0.000
      13 -> 17         0.55570
      13 -> 18         0.41996

 Excited State   5:      Singlet-A'     9.2972 eV  133.36 nm  f=0.1701  <S**2>=0.000
      13 -> 17        -0.42893
      13 -> 18         0.55433

 Excited State   6:      Singlet-A"     9.7399 eV  127.30 nm  f=0.0523  <S**2>=0.000
      13 -> 19         0.66998
      13 -> 20        -0.19971

 Excited State   7:      Singlet-A"     9.9603 eV  124.48 nm  f=0.0991  <S**2>=0.000
      13 -> 19         0.20052
      13 -> 20         0.67266

 Excited State   8:      Singlet-A'    10.3802 eV  119.44 nm  f=0.0012  <S**2>=0.000
      13 -> 21         0.69782

 Excited State   9:      Singlet-A'    10.9657 eV  113.07 nm  f=0.0197  <S**2>=0.000
      11 -> 14         0.67943
      12 -> 16        -0.13292

 Excited State  10:      Singlet-A"    10.9807 eV  112.91 nm  f=0.0759  <S**2>=0.000
      11 -> 16        -0.12569
      12 -> 14         0.68353

 Excited State  11:      Singlet-A"    11.4673 eV  108.12 nm  f=0.0005  <S**2>=0.000
      10 -> 14         0.64140
      11 -> 16        -0.16324
      13 -> 22         0.17576

 Excited State  12:      Singlet-A"    11.8648 eV  104.50 nm  f=0.0016  <S**2>=0.000
      10 -> 14        -0.16592
      13 -> 22         0.66796

 Excited State  13:      Singlet-A'    12.1643 eV  101.92 nm  f=0.3956  <S**2>=0.000
      11 -> 15         0.64947
      12 -> 16        -0.21322

 Excited State  14:      Singlet-A"    12.1767 eV  101.82 nm  f=0.0056  <S**2>=0.000
      12 -> 15         0.68162

 Excited State  15:      Singlet-A"    12.4947 eV   99.23 nm  f=0.0717  <S**2>=0.000
       9 -> 14         0.21557
      10 -> 14         0.16515
      10 -> 15        -0.21713
      11 -> 16         0.50005
      12 -> 15         0.11635
      12 -> 17         0.25588
      12 -> 18         0.14151

 Excited State  16:      Singlet-A'    12.5243 eV   99.00 nm  f=0.1834  <S**2>=0.000
       8 -> 14        -0.30921
      10 -> 16        -0.16392
      11 -> 14         0.10802
      11 -> 15         0.18404
      11 -> 17         0.12582
      12 -> 16         0.54513

 Excited State  17:      Singlet-A"    12.7103 eV   97.55 nm  f=0.0883  <S**2>=0.000
       9 -> 14         0.10489
      10 -> 15         0.62885
      10 -> 17         0.11363
      11 -> 16         0.15978
      11 -> 19        -0.14109

 Excited State  18:      Singlet-A'    12.8242 eV   96.68 nm  f=0.1713  <S**2>=0.000
       8 -> 14         0.18135
      10 -> 16         0.25084
      10 -> 19        -0.12602
      11 -> 17         0.57788
      11 -> 18        -0.13875

 Excited State  19:      Singlet-A"    12.8599 eV   96.41 nm  f=0.0032  <S**2>=0.000
      10 -> 17        -0.14406
      11 -> 19         0.17170
      11 -> 20         0.16949
      12 -> 17        -0.33259
      12 -> 18         0.53629

 Excited State  20:      Singlet-A"    12.9913 eV   95.44 nm  f=0.3260  <S**2>=0.000
       9 -> 14        -0.36884
      11 -> 16        -0.14540
      12 -> 17         0.44528
      12 -> 18         0.30872
      12 -> 21         0.12090

 Excited State  21:      Singlet-A'    12.9985 eV   95.38 nm  f=0.0058  <S**2>=0.000
       8 -> 14         0.15469
      10 -> 16         0.32209
      11 -> 15         0.15124
      11 -> 18         0.50125
      12 -> 16         0.17614
      12 -> 19         0.11599
      12 -> 20         0.17220

 Excited State  22:      Singlet-A'    13.2813 eV   93.35 nm  f=0.2095  <S**2>=0.000
       8 -> 14        -0.30430
       9 -> 16        -0.13323
      10 -> 16        -0.26247
      11 -> 14        -0.10566
      11 -> 17         0.29092
      11 -> 18         0.35998
      12 -> 16        -0.24731

 Excited State  23:      Singlet-A"    13.3018 eV   93.21 nm  f=0.3072  <S**2>=0.000
       8 -> 16         0.12354
       9 -> 14         0.46943
       9 -> 15        -0.11293
      10 -> 17        -0.27312
      11 -> 16        -0.27247
      11 -> 20         0.10661
      12 -> 17         0.24927

 Excited State  24:      Singlet-A"    13.4661 eV   92.07 nm  f=0.1071  <S**2>=0.000
       9 -> 14        -0.10667
       9 -> 15         0.18063
      10 -> 15         0.14944
      10 -> 17        -0.36081
      10 -> 18         0.12717
      11 -> 16         0.14828
      11 -> 19         0.42967
      12 -> 18        -0.21505

 Excited State  25:      Singlet-A'    13.5642 eV   91.41 nm  f=0.0405  <S**2>=0.000
       8 -> 14         0.45204
       8 -> 15        -0.16933
      10 -> 16        -0.41607
      10 -> 19        -0.18181
      12 -> 16         0.11754

 Excited State  26:      Singlet-A'    13.7588 eV   90.11 nm  f=0.0585  <S**2>=0.000
       8 -> 15         0.28170
       8 -> 18         0.16399
      10 -> 19         0.15487
      10 -> 20        -0.13599
      11 -> 18        -0.16291
      12 -> 20         0.51535

 Excited State  27:      Singlet-A"    13.7594 eV   90.11 nm  f=0.0371  <S**2>=0.000
       8 -> 16        -0.11440
      10 -> 17         0.16702
      10 -> 18         0.62857

 Excited State  28:      Singlet-A"    13.9262 eV   89.03 nm  f=0.0554  <S**2>=0.000
       9 -> 14        -0.17585
       9 -> 15        -0.27423
       9 -> 18        -0.16925
      11 -> 16         0.13942
      11 -> 19        -0.16798
      11 -> 20         0.50997
      12 -> 18        -0.12424

 Excited State  29:      Singlet-A'    13.9397 eV   88.94 nm  f=0.0328  <S**2>=0.000
       8 -> 15        -0.16368
       8 -> 17        -0.13539
      10 -> 19        -0.12368
      10 -> 20         0.17301
      11 -> 18        -0.16233
      12 -> 19         0.49238
      12 -> 20         0.27297

 Excited State  30:      Singlet-A"    14.0936 eV   87.97 nm  f=0.0009  <S**2>=0.000
       9 -> 14         0.10437
       9 -> 17         0.14050
       9 -> 18        -0.14248
      10 -> 17         0.41880
      10 -> 18        -0.15422
      11 -> 16        -0.10394
      11 -> 19         0.37748
      11 -> 20         0.24813

 Excited State  31:      Singlet-A'    14.2379 eV   87.08 nm  f=0.1704  <S**2>=0.000
       7 -> 15        -0.10981
       7 -> 17        -0.10407
       8 -> 15         0.15339
       8 -> 17         0.13332
      10 -> 19         0.44534
      11 -> 17         0.14008
      12 -> 19         0.34340
      12 -> 20        -0.21610

 Excited State  32:      Singlet-A"    14.3056 eV   86.67 nm  f=0.0009  <S**2>=0.000
       9 -> 15         0.59323
      11 -> 19        -0.21911
      11 -> 20         0.23217

 Excited State  33:      Singlet-A'    14.5542 eV   85.19 nm  f=0.0414  <S**2>=0.000
       7 -> 14        -0.24945
       8 -> 15         0.49788
       8 -> 17        -0.12513
       9 -> 16         0.16297
      10 -> 19        -0.26394
      11 -> 21        -0.10076
      12 -> 19         0.11022
      12 -> 20        -0.11984

 Excited State  34:      Singlet-A"    14.6651 eV   84.54 nm  f=0.0007  <S**2>=0.000
       8 -> 16         0.12300
       9 -> 17        -0.14632
      11 -> 22        -0.11081
      12 -> 21         0.63418

 Excited State  35:      Singlet-A'    14.7053 eV   84.31 nm  f=0.0087  <S**2>=0.000
       7 -> 14        -0.35261
       8 -> 15        -0.12637
      10 -> 20        -0.10348
      11 -> 21         0.53753

 Excited State  36:      Singlet-A'    14.7581 eV   84.01 nm  f=0.2305  <S**2>=0.000
       7 -> 14         0.44470
       9 -> 16         0.41663
      10 -> 19        -0.13642
      11 -> 21         0.20050
      12 -> 19         0.10105

 Excited State  37:      Singlet-A'    14.8829 eV   83.31 nm  f=0.0283  <S**2>=0.000
       7 -> 14        -0.15109
       8 -> 15        -0.24549
       8 -> 18         0.11109
       9 -> 16         0.39034
      10 -> 19         0.16672
      10 -> 20        -0.31347
      11 -> 21        -0.26989

 Excited State  38:      Singlet-A'    14.9977 eV   82.67 nm  f=0.1118  <S**2>=0.000
       7 -> 14        -0.11239
       8 -> 17        -0.18033
       8 -> 18        -0.14858
       9 -> 16         0.26142
      10 -> 19         0.19992
      10 -> 20         0.46693
      12 -> 19        -0.18463
      12 -> 22         0.10085

 Excited State  39:      Singlet-A"    15.0475 eV   82.40 nm  f=0.0356  <S**2>=0.000
       8 -> 16         0.13514
       8 -> 20         0.10785
       9 -> 17        -0.22874
       9 -> 18        -0.38362
      10 -> 21         0.46670
      11 -> 22        -0.10202
      12 -> 21        -0.10408

 Excited State  40:      Singlet-A"    15.0683 eV   82.28 nm  f=0.0326  <S**2>=0.000
       9 -> 17        -0.38356
       9 -> 18         0.47521
      10 -> 21         0.18365
      11 -> 19         0.11125
      11 -> 20         0.23341

 Excited State  41:      Singlet-A"    15.1005 eV   82.11 nm  f=0.0050  <S**2>=0.000
       8 -> 16         0.59369
       8 -> 19         0.14217
      10 -> 17         0.10010
      10 -> 18         0.12741
      10 -> 21        -0.19986
      12 -> 21        -0.11778

 Excited State  42:      Singlet-A"    15.3124 eV   80.97 nm  f=0.0931  <S**2>=0.000
       8 -> 16         0.20009
       9 -> 17         0.45738
       9 -> 18         0.19466
      10 -> 21         0.37818
      11 -> 19        -0.13465

 Excited State  43:      Singlet-A'    15.3753 eV   80.64 nm  f=0.0214  <S**2>=0.000
       8 -> 18         0.55866
       9 -> 20        -0.20827
      10 -> 20         0.25579
      12 -> 20        -0.12754

 Excited State  44:      Singlet-A'    15.6586 eV   79.18 nm  f=0.0913  <S**2>=0.000
       7 -> 14        -0.13631
       7 -> 15        -0.37778
       8 -> 17         0.47303
       8 -> 18        -0.15270
       9 -> 16         0.11543
      10 -> 19        -0.13339
      10 -> 20         0.12143
      12 -> 22        -0.10837

 Excited State  45:      Singlet-A'    15.7587 eV   78.68 nm  f=0.0250  <S**2>=0.000
       7 -> 15         0.43601
       8 -> 17         0.24799
       8 -> 18        -0.10803
       8 -> 21         0.10511
       9 -> 16         0.11273
       9 -> 19        -0.38190
      11 -> 21        -0.10912
      12 -> 22        -0.14074

 Excited State  46:      Singlet-A'    15.9375 eV   77.79 nm  f=0.0925  <S**2>=0.000
       7 -> 15         0.26320
       8 -> 17         0.19297
       8 -> 18         0.11977
       9 -> 19         0.42588
       9 -> 20         0.30632
      13 -> 23        -0.23320

 Excited State  47:      Singlet-A'    16.0513 eV   77.24 nm  f=0.0176  <S**2>=0.000
       7 -> 15        -0.19086
       7 -> 17         0.11156
       7 -> 18         0.14730
       8 -> 17        -0.13806
       8 -> 18         0.14701
       9 -> 19        -0.21306
       9 -> 20         0.50940
      11 -> 21        -0.11512
      12 -> 22        -0.15704

 Excited State  48:      Singlet-A"    16.1360 eV   76.84 nm  f=0.2665  <S**2>=0.000
       7 -> 16         0.31921
       8 -> 19        -0.37207
       9 -> 21         0.20517
      11 -> 22         0.40913

 Excited State  49:      Singlet-A"    16.2925 eV   76.10 nm  f=0.0030  <S**2>=0.000
       7 -> 16         0.31087
       8 -> 19         0.36366
       8 -> 20         0.47723
      13 -> 24        -0.12649

 Excited State  50:      Singlet-A"    16.3386 eV   75.88 nm  f=0.0041  <S**2>=0.000
       7 -> 16        -0.25814
       8 -> 19        -0.35490
       8 -> 20         0.42604
      10 -> 21        -0.14207
      11 -> 22        -0.24167

 Excited State  51:      Singlet-A'    16.3549 eV   75.81 nm  f=0.1420  <S**2>=0.000
       7 -> 17        -0.17545
       8 -> 17         0.15457
       8 -> 18         0.10543
       8 -> 21        -0.10979
       9 -> 20         0.19285
      12 -> 22         0.17054
      13 -> 23         0.57446

 Excited State  52:      Singlet-A'    16.4362 eV   75.43 nm  f=0.0305  <S**2>=0.000
       7 -> 14         0.11009
       7 -> 15        -0.10486
       7 -> 17        -0.24380
       9 -> 19        -0.26695
      11 -> 21         0.12904
      12 -> 22         0.44230
      13 -> 23        -0.26040
      13 -> 26         0.11019

 Excited State  53:      Singlet-A"    16.5264 eV   75.02 nm  f=0.0193  <S**2>=0.000
       7 -> 16        -0.38105
       8 -> 20         0.15097
       9 -> 21        -0.27007
      11 -> 22         0.45444
      12 -> 21         0.10819

 Excited State  54:      Singlet-A'    16.7048 eV   74.22 nm  f=0.0911  <S**2>=0.000
       7 -> 17         0.46251
       7 -> 18        -0.39943
       8 -> 21        -0.12721
      10 -> 22        -0.20961
      12 -> 22         0.17400

 Excited State  55:      Singlet-A"    16.7229 eV   74.14 nm  f=0.0399  <S**2>=0.000
       7 -> 16         0.20366
       8 -> 19        -0.14791
       9 -> 21        -0.43287
      13 -> 24         0.45851
      13 -> 25        -0.10939

 Excited State  56:      Singlet-A'    16.8082 eV   73.76 nm  f=0.1395  <S**2>=0.000
       7 -> 17         0.10960
       7 -> 18         0.43413
       8 -> 21        -0.35417
       9 -> 20        -0.13775
      10 -> 22        -0.29632
      13 -> 23        -0.11465

 Excited State  57:      Singlet-A"    16.8423 eV   73.61 nm  f=0.1681  <S**2>=0.000
       7 -> 16        -0.12746
       7 -> 20         0.10048
       8 -> 19         0.11911
       8 -> 20         0.12315
       9 -> 21         0.40683
      13 -> 24         0.48518

 Excited State  58:      Singlet-A'    16.9680 eV   73.07 nm  f=0.0043  <S**2>=0.000
       7 -> 17         0.32197
       7 -> 18         0.30835
       8 -> 21         0.34277
      10 -> 22         0.19669
      12 -> 22         0.32797

 Excited State  59:      Singlet-A'    17.2333 eV   71.94 nm  f=0.0933  <S**2>=0.000
       7 -> 17         0.14223
       8 -> 21        -0.41976
      10 -> 22         0.52050

 Excited State  60:      Singlet-A"    17.3499 eV   71.46 nm  f=0.0035  <S**2>=0.000
       7 -> 19         0.62719
       7 -> 20         0.23598
      13 -> 25         0.14431

 Excited State  61:      Singlet-A"    17.6590 eV   70.21 nm  f=0.0029  <S**2>=0.000
       7 -> 19        -0.14928
       7 -> 20         0.61382
      13 -> 25        -0.25913

 Excited State  62:      Singlet-A"    18.0233 eV   68.79 nm  f=0.0420  <S**2>=0.000
       7 -> 19        -0.20343
       7 -> 20         0.19116
      13 -> 25         0.60755

 Excited State  63:      Singlet-A'    18.1515 eV   68.31 nm  f=0.0302  <S**2>=0.000
       6 -> 14         0.12764
       7 -> 21         0.38430
       9 -> 22         0.50949
      13 -> 26         0.20307

 Excited State  64:      Singlet-A'    18.2658 eV   67.88 nm  f=0.0104  <S**2>=0.000
       6 -> 14         0.16247
       7 -> 21        -0.45237
       9 -> 22         0.12072
      13 -> 26         0.47839

 Excited State  65:      Singlet-A"    18.4869 eV   67.07 nm  f=0.0106  <S**2>=0.000
       8 -> 22         0.68187

 Excited State  66:      Singlet-A'    18.5020 eV   67.01 nm  f=0.0431  <S**2>=0.000
       6 -> 14         0.62040
      13 -> 26        -0.27045
      13 -> 27        -0.12028

 Excited State  67:      Singlet-A'    19.1488 eV   64.75 nm  f=0.0138  <S**2>=0.000
       6 -> 14         0.11124
      13 -> 27         0.67270

 Excited State  68:      Singlet-A"    19.5804 eV   63.32 nm  f=0.0749  <S**2>=0.000
       6 -> 16        -0.11778
       7 -> 22         0.67771

 Excited State  69:      Singlet-A'    19.5911 eV   63.29 nm  f=0.0070  <S**2>=0.000
       6 -> 14         0.11993
       6 -> 15         0.66181
       7 -> 21         0.10169

 Excited State  70:      Singlet-A'    19.8398 eV   62.49 nm  f=0.3053  <S**2>=0.000
       6 -> 14        -0.16571
       6 -> 15         0.14713
       6 -> 17         0.12678
       7 -> 21        -0.28007
       9 -> 22         0.39824
      11 -> 23         0.10453
      13 -> 26        -0.31287
      13 -> 28         0.13042
      13 -> 31         0.11753

 Excited State  71:      Singlet-A"    20.0415 eV   61.86 nm  f=0.0204  <S**2>=0.000
       5 -> 14        -0.27484
       6 -> 16         0.59186
       7 -> 22         0.11763
      12 -> 23         0.18722

 Excited State  72:      Singlet-A'    20.3777 eV   60.84 nm  f=0.0345  <S**2>=0.000
       5 -> 16         0.10402
       6 -> 17         0.59751
       6 -> 18         0.22989
      11 -> 23        -0.14423

 Excited State  73:      Singlet-A'    20.3959 eV   60.79 nm  f=0.0258  <S**2>=0.000
       6 -> 17        -0.27881
       6 -> 18         0.60591
      11 -> 23        -0.16994

 Excited State  74:      Singlet-A"    20.5769 eV   60.25 nm  f=0.0099  <S**2>=0.000
       5 -> 14         0.51289
       5 -> 15        -0.14901
       6 -> 16         0.17503
       6 -> 19         0.17052
      11 -> 24        -0.26655
      12 -> 23         0.21709

 Excited State  75:      Singlet-A'    20.6712 eV   59.98 nm  f=0.0137  <S**2>=0.000
       6 -> 18         0.18463
      11 -> 23         0.61835
      12 -> 24        -0.13184

 Excited State  76:      Singlet-A"    20.7380 eV   59.79 nm  f=0.0013  <S**2>=0.000
       5 -> 14        -0.32444
       6 -> 16        -0.21263
       6 -> 20        -0.13303
      11 -> 24        -0.36145
      11 -> 25         0.14793
      12 -> 23         0.37767

 Excited State  77:      Singlet-A"    20.9379 eV   59.22 nm  f=0.0027  <S**2>=0.000
       5 -> 17        -0.14429
       6 -> 19         0.48499
       6 -> 20         0.21101
      10 -> 23        -0.36112
      11 -> 24         0.10247

 Excited State  78:      Singlet-A"    21.0273 eV   58.96 nm  f=0.0040  <S**2>=0.000
       5 -> 14        -0.13273
       5 -> 15        -0.19136
       5 -> 17        -0.10254
       6 -> 19         0.36966
       6 -> 20        -0.16647
      10 -> 23         0.44109
      11 -> 25        -0.11446
      12 -> 23        -0.15807

 Excited State  79:      Singlet-A'    21.0816 eV   58.81 nm  f=0.0104  <S**2>=0.000
      11 -> 23         0.13652
      11 -> 27         0.10808
      12 -> 24         0.64067

 Excited State  80:      Singlet-A"    21.1176 eV   58.71 nm  f=0.0004  <S**2>=0.000
       5 -> 15         0.20951
       5 -> 18         0.12230
       6 -> 20         0.54779
      10 -> 23         0.26009
      11 -> 24        -0.23304

 Excited State  81:      Singlet-A'    21.4647 eV   57.76 nm  f=0.0034  <S**2>=0.000
      10 -> 24         0.51534
      10 -> 25        -0.18398
      11 -> 26         0.18010
      11 -> 27         0.11160
      12 -> 25        -0.35015

 Excited State  82:      Singlet-A"    21.6259 eV   57.33 nm  f=0.2090  <S**2>=0.000
       5 -> 15         0.40068
       5 -> 17        -0.15193
       6 -> 16         0.13971
       6 -> 19         0.10886
       6 -> 20        -0.19262
      10 -> 23        -0.16993
      11 -> 24        -0.25834
      12 -> 23        -0.29826
      12 -> 27        -0.15315

 Excited State  83:      Singlet-A"    21.7421 eV   57.02 nm  f=0.1928  <S**2>=0.000
       5 -> 15        -0.35538
       6 -> 19        -0.16947
       6 -> 20         0.10301
      11 -> 24        -0.13820
      11 -> 25         0.36039
      12 -> 23        -0.32386
      12 -> 27        -0.14749

 Excited State  84:      Singlet-A'    21.7425 eV   57.02 nm  f=0.0488  <S**2>=0.000
       8 -> 23        -0.10100
      10 -> 24        -0.16634
      10 -> 25         0.11477
      12 -> 25        -0.33735
      13 -> 28         0.52524

 Excited State  85:      Singlet-A"    21.8815 eV   56.66 nm  f=0.0023  <S**2>=0.000
       5 -> 15         0.29344
       5 -> 17         0.11022
       5 -> 18        -0.13794
       6 -> 19         0.12489
       8 -> 24         0.10985
      10 -> 23         0.16935
      11 -> 24         0.20292
      11 -> 25         0.40827
      12 -> 26        -0.27098

 Excited State  86:      Singlet-A'    21.9148 eV   56.58 nm  f=0.1593  <S**2>=0.000
       5 -> 16         0.13002
       6 -> 21         0.27734
      10 -> 24         0.32188
      12 -> 25         0.38789
      13 -> 28         0.30660

 Excited State  87:      Singlet-A'    22.0654 eV   56.19 nm  f=0.0104  <S**2>=0.000
       6 -> 21         0.59608
       9 -> 24        -0.12943
      12 -> 25        -0.14930
      13 -> 28        -0.22339

 Excited State  88:      Singlet-A'    22.2752 eV   55.66 nm  f=0.0109  <S**2>=0.000

 The electronic state is 1-A'.
 Alpha  occ. eigenvalues --  -14.42027 -10.31088 -10.31087  -0.98804  -0.78672
 Alpha  occ. eigenvalues --   -0.70925  -0.57409  -0.52475  -0.52034  -0.46447
 Alpha  occ. eigenvalues --   -0.44284  -0.44185  -0.29531
 Alpha virt. eigenvalues --    0.13947   0.17909   0.19047   0.21036   0.21527
 Alpha virt. eigenvalues --    0.23809   0.24538   0.28555   0.34492   0.49949
 Alpha virt. eigenvalues --    0.52556   0.54830   0.57131   0.61056   0.70518

 Mulliken charges:
               1
     1  C    0.037572
     2  N   -0.344129
     3  C    0.037572
     4  H    0.037303
     5  H    0.005467
     6  H    0.032282
     7  H    0.118881
     8  H    0.032282
     9  H    0.005467
    10  H    0.037303
 Sum of Mulliken charges =  -0.00000

 Dipole moment (field-independent basis, Debye):
    X=              0.9063    Y=             -0.2630    Z=              0.0000  Tot=              0.9437
 Quadrupole moment (field-independent basis, Debye-Ang):
   XX=            -20.7028   YY=            -20.9149   ZZ=            -19.5560
   XY=              2.0427   XZ=             -0.0000   YZ=             -0.0000

 Normal termination of Gaussian 16 at Sat Aug 14 07:23:29 2021.
