 Gaussian 16, Revision C.01,
 Gaussian 16:  EM64L-G16RevC.01  3-Jul-2019

 ----------------------------------------------------------------------
 #P TD(Nstates=10000) wB97XD/def2SVP SCF(maxcycles=100) Int(Grid=ultraf
 ine)
 ----------------------------------------------------------------------

 ---------------------
 xGDB7_00001_tier4.com
 ---------------------
 Symbolic Z-matrix:
 Charge =  0 Multiplicity = 1

                         Standard orientation:
 ---------------------------------------------------------------------
 Center     Atomic      Atomic             Coordinates (Angstroms)
 Number     Number       Type             X           Y           Z
 ---------------------------------------------------------------------
      1          6           0       -1.115976   -0.467377    0.000000
      2          6           0        0.000000    0.551060    0.000000
      3          9           0        1.223274   -0.079801    0.000000
      4          1           0       -2.093267    0.037854    0.000000
      5          1           0       -1.056924   -1.108199    0.891580
      6          1           0       -1.056924   -1.108199   -0.891580
      7          1           0       -0.053248    1.197330    0.892538
      8          1           0       -0.053248    1.197330   -0.892538
 ---------------------------------------------------------------------

 SCF Done:  E(RwB97XD) =  -178.873014643     A.U. after   13 cycles

 Excitation energies and oscillator strengths:

 Excited State   1:      Singlet-A"    10.1658 eV  121.96 nm  f=0.0331  <S**2>=0.000
      13 -> 14         0.66576
      13 -> 15        -0.19638
 This state for optimization and/or second-order correction.
 Total Energy, E(TD-HF/TD-DFT) =  -178.499426694
 Copying the excited state density for this state as the 1-particle RhoCI density.

 Excited State   2:      Singlet-A'    10.5580 eV  117.43 nm  f=0.0169  <S**2>=0.000
      12 -> 14         0.65059
      12 -> 15        -0.21732
      12 -> 18        -0.14516

 Excited State   3:      Singlet-A"    10.9358 eV  113.38 nm  f=0.0267  <S**2>=0.000
      13 -> 14         0.17781
      13 -> 15         0.49436
      13 -> 17         0.26413
      13 -> 18         0.36754

 Excited State   4:      Singlet-A'    11.1404 eV  111.29 nm  f=0.0245  <S**2>=0.000
      12 -> 14         0.24431
      12 -> 15         0.50211
      12 -> 17         0.26718
      12 -> 18         0.32805

 Excited State   5:      Singlet-A'    11.5932 eV  106.95 nm  f=0.2332  <S**2>=0.000
      13 -> 16         0.69261

 Excited State   6:      Singlet-A"    11.5987 eV  106.89 nm  f=0.1141  <S**2>=0.000
      12 -> 16         0.68146

 Excited State   7:      Singlet-A"    11.7036 eV  105.94 nm  f=0.1776  <S**2>=0.000
      10 -> 14         0.32172
      12 -> 16         0.12079
      13 -> 15        -0.34977
      13 -> 17         0.40729
      13 -> 18         0.28055

 Excited State   8:      Singlet-A'    11.8743 eV  104.41 nm  f=0.1512  <S**2>=0.000
      11 -> 14         0.67469
      11 -> 15         0.12706

 Excited State   9:      Singlet-A'    11.9966 eV  103.35 nm  f=0.1512  <S**2>=0.000
      11 -> 14         0.11770
      12 -> 15        -0.42120
      12 -> 17         0.43126
      12 -> 18         0.32791

 Excited State  10:      Singlet-A"    12.1489 eV  102.05 nm  f=0.0062  <S**2>=0.000
      10 -> 14         0.48085
      10 -> 17        -0.12954
      13 -> 15         0.27651
      13 -> 17         0.14001
      13 -> 18        -0.36301

 Excited State  11:      Singlet-A"    12.3729 eV  100.21 nm  f=0.0518  <S**2>=0.000
      10 -> 14        -0.37160
      10 -> 15        -0.15683
      10 -> 17        -0.14571
      13 -> 14        -0.11069
      13 -> 17         0.45171
      13 -> 18        -0.29166

 Excited State  12:      Singlet-A'    12.4686 eV   99.44 nm  f=0.0724  <S**2>=0.000
      12 -> 15        -0.10469
      12 -> 17        -0.46188
      12 -> 18         0.48473

 Excited State  13:      Singlet-A"    12.7992 eV   96.87 nm  f=0.0001  <S**2>=0.000
      12 -> 19         0.68834

 Excited State  14:      Singlet-A'    12.9178 eV   95.98 nm  f=0.0155  <S**2>=0.000
      10 -> 16        -0.18016
      11 -> 15         0.28537
      11 -> 17         0.20984
      13 -> 19         0.57337

 Excited State  15:      Singlet-A"    13.0450 eV   95.04 nm  f=0.0068  <S**2>=0.000
      10 -> 15         0.53037
      10 -> 17         0.18834
      10 -> 18         0.13923
      11 -> 16        -0.29670
      13 -> 17         0.10685
      13 -> 18        -0.21266

 Excited State  16:      Singlet-A'    13.1518 eV   94.27 nm  f=0.1303  <S**2>=0.000
      11 -> 14        -0.12751
      11 -> 15         0.59273
      13 -> 19        -0.29580

 Excited State  17:      Singlet-A"    13.1586 eV   94.22 nm  f=0.1902  <S**2>=0.000
      10 -> 15         0.30067
      11 -> 16         0.60421
      11 -> 19         0.13863

 Excited State  18:      Singlet-A'    13.5008 eV   91.83 nm  f=0.1517  <S**2>=0.000
      10 -> 16         0.60746
      11 -> 15         0.14518
      11 -> 17        -0.21252
      13 -> 19         0.19706

 Excited State  19:      Singlet-A"    13.8207 eV   89.71 nm  f=0.0042  <S**2>=0.000
       8 -> 14        -0.14053
      10 -> 15        -0.25718
      10 -> 17         0.57910
      10 -> 18         0.18443

 Excited State  20:      Singlet-A'    13.8622 eV   89.44 nm  f=0.0185  <S**2>=0.000
       9 -> 14         0.65619
       9 -> 15        -0.12691
       9 -> 18        -0.10407
      11 -> 18         0.13143

 Excited State  21:      Singlet-A'    13.9380 eV   88.95 nm  f=0.2355  <S**2>=0.000
       9 -> 18         0.10880
      10 -> 16         0.25273
      11 -> 17         0.57162
      11 -> 18         0.16611
      12 -> 20         0.13331
      13 -> 19        -0.11754

 Excited State  22:      Singlet-A"    14.0489 eV   88.25 nm  f=0.0159  <S**2>=0.000
       8 -> 17        -0.10968
      10 -> 17        -0.21058
      10 -> 18         0.61530
      13 -> 17        -0.12100
      13 -> 20        -0.11468

 Excited State  23:      Singlet-A'    14.1586 eV   87.57 nm  f=0.0651  <S**2>=0.000
       9 -> 14        -0.10937
       9 -> 15         0.10094
      10 -> 19         0.11959
      11 -> 17        -0.15077
      11 -> 18         0.56630
      12 -> 20         0.26553

 Excited State  24:      Singlet-A"    14.2407 eV   87.06 nm  f=0.0370  <S**2>=0.000
       9 -> 16        -0.12641
      10 -> 18         0.14384
      11 -> 16         0.10595
      11 -> 19        -0.17859
      13 -> 20         0.63640

 Excited State  25:      Singlet-A"    14.4031 eV   86.08 nm  f=0.0139  <S**2>=0.000
       7 -> 16        -0.11235
       9 -> 16        -0.11352
      10 -> 17         0.10615
      11 -> 16        -0.12440
      11 -> 19         0.63256
      13 -> 20         0.16894

 Excited State  26:      Singlet-A'    14.6156 eV   84.83 nm  f=0.2040  <S**2>=0.000
       7 -> 14         0.15201
       7 -> 15        -0.10570
       9 -> 15        -0.33435
       9 -> 17        -0.10456
       9 -> 18        -0.11407
      10 -> 19        -0.35083
      12 -> 20         0.40561

 Excited State  27:      Singlet-A'    14.6291 eV   84.75 nm  f=0.0282  <S**2>=0.000
       9 -> 15        -0.43679
       9 -> 17        -0.14755
       9 -> 18        -0.15774
      10 -> 19         0.45263
      11 -> 17         0.16258

 Excited State  28:      Singlet-A"    14.8713 eV   83.37 nm  f=0.0098  <S**2>=0.000
       8 -> 14        -0.34041
       9 -> 16         0.58175
      13 -> 20         0.10927

 Excited State  29:      Singlet-A"    15.0420 eV   82.43 nm  f=0.2704  <S**2>=0.000
       8 -> 14         0.53969
       8 -> 15        -0.17747
       9 -> 16         0.34277
      10 -> 17         0.13826
      13 -> 20         0.11325

 Excited State  30:      Singlet-A'    15.1625 eV   81.77 nm  f=0.0065  <S**2>=0.000
       7 -> 14         0.58203
       7 -> 17         0.11663
       9 -> 15         0.15116
      10 -> 19         0.20709
      11 -> 18        -0.14668
      11 -> 20         0.15190

 Excited State  31:      Singlet-A'    15.3507 eV   80.77 nm  f=0.0071  <S**2>=0.000
       7 -> 14        -0.24797
       9 -> 15         0.30028
       9 -> 17        -0.21860
       9 -> 18        -0.29238
       9 -> 20         0.10344
      10 -> 19         0.16310
      11 -> 18        -0.17187
      12 -> 20         0.33846

 Excited State  32:      Singlet-A'    15.3945 eV   80.54 nm  f=0.2228  <S**2>=0.000
       7 -> 14        -0.15769
       7 -> 15         0.10324
       7 -> 18         0.10238
       8 -> 16         0.10345
       9 -> 15        -0.16947
       9 -> 17         0.45666
       9 -> 18         0.19971
      10 -> 19         0.14142
      11 -> 18        -0.18892
      11 -> 20         0.16277
      12 -> 20         0.24375

 Excited State  33:      Singlet-A"    15.7027 eV   78.96 nm  f=0.0027  <S**2>=0.000
       7 -> 16         0.12095
       8 -> 14         0.18474
       8 -> 15         0.52126
       8 -> 17         0.24296
       8 -> 18         0.30885
      10 -> 18         0.12371

 Excited State  34:      Singlet-A'    15.8359 eV   78.29 nm  f=0.0238  <S**2>=0.000
       7 -> 15         0.20515
       7 -> 17         0.12887
       7 -> 18         0.15408
       9 -> 17        -0.40854
       9 -> 18         0.43887

 Excited State  35:      Singlet-A'    15.9659 eV   77.66 nm  f=0.0216  <S**2>=0.000
       7 -> 14        -0.10615
       7 -> 15        -0.14799
       7 -> 18        -0.10264
       8 -> 16        -0.12257
      11 -> 20         0.62822

 Excited State  36:      Singlet-A"    15.9719 eV   77.63 nm  f=0.0145  <S**2>=0.000
       7 -> 16         0.12167
      10 -> 20         0.68207

 Excited State  37:      Singlet-A"    16.0814 eV   77.10 nm  f=0.0522  <S**2>=0.000
       7 -> 16         0.47396
       8 -> 15        -0.12284
       9 -> 19         0.47359
      10 -> 20        -0.10421

 Excited State  38:      Singlet-A"    16.1303 eV   76.86 nm  f=0.0300  <S**2>=0.000
       7 -> 16        -0.44292
       7 -> 19         0.10175
       9 -> 19         0.51085

 Excited State  39:      Singlet-A'    16.1431 eV   76.80 nm  f=0.2248  <S**2>=0.000
       7 -> 15         0.40126
       8 -> 16         0.40655
       9 -> 18        -0.24935
      10 -> 19        -0.16682
      11 -> 20         0.15084
      12 -> 20        -0.14589

 Excited State  40:      Singlet-A"    16.5509 eV   74.91 nm  f=0.0002  <S**2>=0.000
       8 -> 14        -0.11064
       8 -> 15        -0.37353
       8 -> 17         0.45209
       8 -> 18         0.35393

 Excited State  41:      Singlet-A'    16.5668 eV   74.84 nm  f=0.0419  <S**2>=0.000
       7 -> 15        -0.45691
       7 -> 17         0.14786
       8 -> 16         0.46787
       9 -> 20        -0.11352

 Excited State  42:      Singlet-A'    16.9074 eV   73.33 nm  f=0.3795  <S**2>=0.000
       7 -> 15        -0.10500
       7 -> 17         0.35608
       7 -> 18         0.48341
       8 -> 16        -0.16796
       9 -> 18        -0.14985

 Excited State  43:      Singlet-A"    17.1476 eV   72.30 nm  f=0.0630  <S**2>=0.000
       8 -> 17        -0.46212
       8 -> 18         0.49960

 Excited State  44:      Singlet-A'    17.3195 eV   71.59 nm  f=0.0349  <S**2>=0.000
       7 -> 17         0.53204
       7 -> 18        -0.41045

 Excited State  45:      Singlet-A'    17.5013 eV   70.84 nm  f=0.1247  <S**2>=0.000
       8 -> 16         0.11031
       8 -> 19         0.61937
       9 -> 20         0.29408

 Excited State  46:      Singlet-A"    17.5549 eV   70.63 nm  f=0.0728  <S**2>=0.000
       7 -> 16         0.14317
       7 -> 19         0.67750

 Excited State  47:      Singlet-A'    18.1008 eV   68.50 nm  f=0.1624  <S**2>=0.000
       6 -> 14         0.31674
       8 -> 19        -0.26330
       9 -> 20         0.52430

 Excited State  48:      Singlet-A"    18.8020 eV   65.94 nm  f=0.0173  <S**2>=0.000
       8 -> 20         0.68656

 Excited State  49:      Singlet-A'    18.8573 eV   65.75 nm  f=0.0298  <S**2>=0.000
       6 -> 14         0.36365
       7 -> 20         0.57183

 Excited State  50:      Singlet-A'    19.0657 eV   65.03 nm  f=0.0176  <S**2>=0.000
       6 -> 14         0.44286
       6 -> 15        -0.17520
       6 -> 17        -0.13868
       6 -> 18        -0.12711
       7 -> 20        -0.36812
       9 -> 20        -0.17726
      13 -> 21         0.16199

 Excited State  51:      Singlet-A"    19.6001 eV   63.26 nm  f=0.0003  <S**2>=0.000
       6 -> 16         0.45125
      12 -> 21        -0.41056
      13 -> 22         0.33175

 Excited State  52:      Singlet-A'    19.6301 eV   63.16 nm  f=0.0166  <S**2>=0.000
       6 -> 14         0.18340
       6 -> 15         0.57761
       6 -> 17         0.21064
       6 -> 18         0.14227
      13 -> 21         0.20518

 Excited State  53:      Singlet-A"    19.7740 eV   62.70 nm  f=0.0002  <S**2>=0.000
       6 -> 16         0.52693
      12 -> 21         0.35691
      13 -> 22        -0.27550

 Excited State  54:      Singlet-A"    19.9664 eV   62.10 nm  f=0.0280  <S**2>=0.000
      12 -> 21         0.41252
      13 -> 22         0.54138

 Excited State  55:      Singlet-A'    20.2241 eV   61.31 nm  f=0.1538  <S**2>=0.000
       6 -> 15        -0.26262
       6 -> 17         0.27225
      12 -> 22         0.24251
      13 -> 21         0.49355

 Excited State  56:      Singlet-A'    20.3548 eV   60.91 nm  f=0.1256  <S**2>=0.000
       6 -> 17         0.32829
       9 -> 20        -0.11348
      12 -> 22         0.44744
      13 -> 21        -0.36616

 Excited State  57:      Singlet-A"    20.5345 eV   60.38 nm  f=0.0028  <S**2>=0.000
      11 -> 21        -0.10057
      13 -> 23         0.51675
      13 -> 24         0.43946

 Excited State  58:      Singlet-A'    20.5921 eV   60.21 nm  f=0.0110  <S**2>=0.000
       6 -> 15        -0.11775
       6 -> 17         0.46057
       6 -> 18        -0.13903
      12 -> 22        -0.39544
      12 -> 23        -0.21118

 Excited State  59:      Singlet-A'    20.7407 eV   59.78 nm  f=0.0062  <S**2>=0.000
       6 -> 17         0.10585
       6 -> 18         0.23234
      12 -> 22        -0.18351
      12 -> 23         0.44743
      12 -> 24         0.39477

 Excited State  60:      Singlet-A'    20.7998 eV   59.61 nm  f=0.0399  <S**2>=0.000
       6 -> 15        -0.11951
       6 -> 18         0.59013
      12 -> 23        -0.24581
      12 -> 24        -0.14700

 Excited State  61:      Singlet-A"    21.0852 eV   58.80 nm  f=0.0085  <S**2>=0.000
       6 -> 19         0.68399

 Excited State  62:      Singlet-A"    21.1476 eV   58.63 nm  f=0.0123  <S**2>=0.000
      10 -> 22         0.18919
      10 -> 23         0.13387
      11 -> 21         0.60142
      13 -> 24         0.24321

 Excited State  63:      Singlet-A'    21.5153 eV   57.63 nm  f=0.0100  <S**2>=0.000
      10 -> 21         0.25803
      11 -> 22         0.63283

 Excited State  64:      Singlet-A"    21.6590 eV   57.24 nm  f=0.0039  <S**2>=0.000
      10 -> 22         0.50408
      10 -> 23        -0.13764
      13 -> 23         0.31068
      13 -> 24        -0.32895

 Excited State  65:      Singlet-A"    21.8388 eV   56.77 nm  f=0.0946  <S**2>=0.000
      10 -> 22         0.40870
      10 -> 23        -0.10828
      11 -> 21        -0.27546
      13 -> 23        -0.31234
      13 -> 24         0.33992

 Excited State  66:      Singlet-A'    21.8537 eV   56.73 nm  f=0.0637  <S**2>=0.000
       9 -> 23         0.10187
      10 -> 21        -0.14482
      12 -> 23        -0.38820
      12 -> 24         0.52320

 Excited State  67:      Singlet-A'    21.9663 eV   56.44 nm  f=0.2015  <S**2>=0.000
      10 -> 21         0.58870
      11 -> 22        -0.24113
      12 -> 24         0.11405
      12 -> 26         0.11829

 Excited State  68:      Singlet-A'    22.3087 eV   55.58 nm  f=0.0036  <S**2>=0.000
       5 -> 14         0.68818

 Excited State  69:      Singlet-A'    22.7365 eV   54.53 nm  f=0.0001  <S**2>=0.000
       6 -> 20         0.65524
       8 -> 21         0.11389
      11 -> 23        -0.14410

 Excited State  70:      Singlet-A"    22.7645 eV   54.46 nm  f=0.0333  <S**2>=0.000
       9 -> 21         0.53521
      10 -> 23         0.39607
      12 -> 25         0.16332

 Excited State  71:      Singlet-A'    23.0014 eV   53.90 nm  f=0.1209  <S**2>=0.000
       6 -> 20         0.13809
      11 -> 23         0.61598
      11 -> 24         0.13184
      13 -> 25        -0.10404

 Excited State  72:      Singlet-A"    23.0347 eV   53.82 nm  f=0.1059  <S**2>=0.000
       5 -> 16        -0.11269
       9 -> 21        -0.31308
      10 -> 22         0.11008
      10 -> 23         0.46637
      10 -> 24         0.15176
      11 -> 21        -0.11627
      12 -> 25        -0.30100

 Excited State  73:      Singlet-A'    23.3166 eV   53.17 nm  f=0.0093  <S**2>=0.000
       5 -> 15         0.61786
       5 -> 17         0.15231
       5 -> 18         0.14439
       9 -> 22         0.10008
      13 -> 25        -0.17290

 Excited State  74:      Singlet-A"    23.4259 eV   52.93 nm  f=0.0003  <S**2>=0.000
       5 -> 16         0.47929
      10 -> 24         0.47341
      13 -> 26         0.10150

 Excited State  75:      Singlet-A'    23.4861 eV   52.79 nm  f=0.0239  <S**2>=0.000
       5 -> 15        -0.13516
       9 -> 22         0.63063
      11 -> 24         0.20639

 Excited State  76:      Singlet-A"    23.5610 eV   52.62 nm  f=0.0194  <S**2>=0.000
       5 -> 16        -0.40098
      10 -> 24         0.41571
      12 -> 25         0.34960

 Excited State  77:      Singlet-A'    23.5788 eV   52.58 nm  f=0.0093  <S**2>=0.000
       5 -> 15         0.15934
       5 -> 17         0.12744
       9 -> 22         0.12698
       9 -> 23         0.10184
      11 -> 23         0.12277
      11 -> 24        -0.37485
      13 -> 25         0.46129

 Excited State  78:      Singlet-A'    23.8363 eV   52.01 nm  f=0.0011  <S**2>=0.000
       5 -> 15        -0.18928
       5 -> 17         0.61159
       5 -> 18         0.15218
       9 -> 23        -0.15053
      12 -> 26         0.11949

 Excited State  79:      Singlet-A"    23.8520 eV   51.98 nm  f=0.0038  <S**2>=0.000
       5 -> 16         0.26093
       8 -> 22        -0.22637
       9 -> 21        -0.24924
      10 -> 23         0.15388
      10 -> 24        -0.15336
      12 -> 25         0.46899
      13 -> 26        -0.12407

 Excited State  80:      Singlet-A'    23.9937 eV   51.67 nm  f=0.1716  <S**2>=0.000
       5 -> 17         0.10052
       5 -> 18         0.16316
       9 -> 22        -0.14456
       9 -> 23         0.31355
       9 -> 24         0.30476
      11 -> 23        -0.10420
      11 -> 24         0.35277
      13 -> 25         0.25486

 Excited State  81:      Singlet-A'    24.2646 eV   51.10 nm  f=0.0231  <S**2>=0.000
       5 -> 17        -0.18886
       5 -> 18         0.59333
       8 -> 21        -0.23440
      11 -> 24        -0.10500

 Excited State  82:      Singlet-A"    24.2831 eV   51.06 nm  f=0.1311  <S**2>=0.000
       7 -> 21         0.42237
       8 -> 22         0.15602
      10 -> 23         0.12454
      10 -> 24        -0.11046
      13 -> 26         0.46117

 Excited State  83:      Singlet-A"    24.3829 eV   50.85 nm  f=0.0163  <S**2>=0.000
       5 -> 19        -0.11127
       7 -> 21         0.49479
      11 -> 25         0.13313
      13 -> 26        -0.40523
      13 -> 27        -0.14725

 Excited State  84:      Singlet-A'    24.4406 eV   50.73 nm  f=0.0016  <S**2>=0.000
       7 -> 22         0.53151
       8 -> 21        -0.40827

 Excited State  85:      Singlet-A'    24.5116 eV   50.58 nm  f=0.0152  <S**2>=0.000
       5 -> 18         0.18902
       7 -> 22         0.39615
       8 -> 21         0.42845
       9 -> 24        -0.15498
      11 -> 26         0.11383
      12 -> 26        -0.15190
      13 -> 29        -0.10296

 Excited State  86:      Singlet-A"    24.6330 eV   50.33 nm  f=0.0600  <S**2>=0.000
       5 -> 19         0.32737
       8 -> 22         0.51202
      10 -> 26        -0.10143
      11 -> 25        -0.14664
      13 -> 26        -0.21575

 Excited State  87:      Singlet-A'    24.6521 eV   50.29 nm  f=0.0509  <S**2>=0.000
       7 -> 23         0.16938
       7 -> 24         0.24167
       9 -> 23         0.35009
       9 -> 24         0.17302
      11 -> 24        -0.31732
      12 -> 27         0.12958
      13 -> 25        -0.25413

 Excited State  88:      Singlet-A"    24.6938 eV   50.21 nm  f=0.0230  <S**2>=0.000
       5 -> 19         0.58737
       7 -> 21         0.16080
       8 -> 22        -0.31640

 Excited State  89:      Singlet-A'    24.9202 eV   49.75 nm  f=0.2642  <S**2>=0.000
       5 -> 20        -0.12862
       7 -> 23        -0.11927
       8 -> 21         0.17721
      10 -> 25        -0.10592
      11 -> 23         0.12121
      12 -> 26         0.56087

 Excited State  90:      Singlet-A'    25.0388 eV   49.52 nm  f=0.0020  <S**2>=0.000
       9 -> 23        -0.38723
       9 -> 24         0.53638
      12 -> 26        -0.12799

 Excited State  91:      Singlet-A"    25.1269 eV   49.34 nm  f=0.0093  <S**2>=0.000
       8 -> 23        -0.35971
       8 -> 24        -0.32660
      10 -> 24        -0.13210
      11 -> 25         0.15122
      13 -> 27         0.38235
      13 -> 28         0.21152

 Excited State  92:      Singlet-A"    25.3311 eV   48.95 nm  f=0.0757  <S**2>=0.000
       5 -> 19         0.11792
       7 -> 21        -0.14443
      11 -> 25         0.63341
      11 -> 31         0.10169
      13 -> 27        -0.12331

 Excited State  93:      Singlet-A"    25.4707 eV   48.68 nm  f=0.0284  <S**2>=0.000
       8 -> 23         0.40574
       8 -> 24         0.20089
      12 -> 29         0.16803
      13 -> 26        -0.13127
      13 -> 27         0.43497
      13 -> 28         0.14586

 Excited State  94:      Singlet-A'    25.4979 eV   48.63 nm  f=0.0560  <S**2>=0.000
       7 -> 23        -0.21186
       7 -> 24        -0.12746
      10 -> 25         0.50836
      11 -> 26        -0.18101
      11 -> 28        -0.10515
      12 -> 27         0.23305
      13 -> 25        -0.10774
      13 -> 29        -0.14597

 Excited State  95:      Singlet-A'    25.5824 eV   48.46 nm  f=0.0100  <S**2>=0.000
       5 -> 20         0.16610
       7 -> 23        -0.13589
      10 -> 25        -0.15457
      12 -> 27         0.52578
      12 -> 28         0.14519

 The electronic state is 1-A'.
 Alpha  occ. eigenvalues --  -24.78300 -10.36793 -10.29789  -1.26526  -0.85313
 Alpha  occ. eigenvalues --   -0.71423  -0.58230  -0.58203  -0.53767  -0.47864
 Alpha  occ. eigenvalues --   -0.47570  -0.41739  -0.40849
 Alpha virt. eigenvalues --    0.14615   0.18411   0.19144   0.20820   0.23236
 Alpha virt. eigenvalues --    0.23773   0.31133   0.50139   0.51895   0.56112
 Alpha virt. eigenvalues --    0.58915   0.65322   0.68740   0.71891   0.73386

 Mulliken charges:
               1
     1  C   -0.130173
     2  C    0.214717
     3  F   -0.292178
     4  H    0.042062
     5  H    0.054519
     6  H    0.054519
     7  H    0.028266
     8  H    0.028266
 Sum of Mulliken charges =  -0.00000

 Dipole moment (field-independent basis, Debye):
    X=             -1.6932    Y=              0.6695    Z=             -0.0000  Tot=              1.8207
 Quadrupole moment (field-independent basis, Debye-Ang):
   XX=            -20.4346   YY=            -17.9413   ZZ=            -17.9980
   XY=              0.1462   XZ=              0.0000   YZ=              0.0000

 Normal termination of Gaussian 16 at Sat Aug 14 23:27:50 2021.
