 Gaussian 16, Revision C.01,
 Gaussian 16:  EM64L-G16RevC.01  3-Jul-2019

 ----------------------------------------------------------------------
 #P TD(Nstates=10000) wB97XD/def2SVP SCF(maxcycles=100) Int(Grid=ultraf
 ine)
 ----------------------------------------------------------------------

 ---------------------
 xGDB7_00001_tier4.com
 ---------------------
 Symbolic Z-matrix:
 Charge =  0 Multiplicity = 1

                         Standard orientation:
 ---------------------------------------------------------------------
 Center     Atomic      Atomic             Coordinates (Angstroms)
 Number     Number       Type             X           Y           Z
 ---------------------------------------------------------------------
      1          9           0        0.000000    0.000000    0.091898
      2          1           0        0.000000    0.000000   -0.827078
 ---------------------------------------------------------------------

 SCF Done:  E(RwB97XD) =  -100.329649269     A.U. after   10 cycles

 Excitation energies and oscillator strengths:

 Excited state symmetry could not be determined.
 Excited State   1:      Singlet-?Sym   10.4987 eV  118.09 nm  f=0.0156  <S**2>=0.000
       5 ->  6         0.70330
 This state for optimization and/or second-order correction.
 Total Energy, E(TD-HF/TD-DFT) =  -99.9438284179
 Copying the excited state density for this state as the 1-particle RhoCI density.

 Excited state symmetry could not be determined.
 Excited State   2:      Singlet-?Sym   10.4987 eV  118.09 nm  f=0.0156  <S**2>=0.000
       4 ->  6         0.70330

 Excited State   3:      Singlet-SG    15.0797 eV   82.22 nm  f=0.2276  <S**2>=0.000
       3 ->  6         0.70504

 Excited state symmetry could not be determined.
 Excited State   4:      Singlet-?Sym   24.1310 eV   51.38 nm  f=0.0383  <S**2>=0.000
       5 ->  7         0.70578

 Excited state symmetry could not be determined.
 Excited State   5:      Singlet-?Sym   24.1310 eV   51.38 nm  f=0.0383  <S**2>=0.000
       4 ->  7         0.70578

 Excited State   6:      Singlet-SG    30.0007 eV   41.33 nm  f=0.2089  <S**2>=0.000
       2 ->  6        -0.10380
       3 ->  7         0.68587

 Excited State   7:      Singlet-SG    32.4484 eV   38.21 nm  f=0.0609  <S**2>=0.000
       2 ->  6         0.69059

 Excited state symmetry could not be determined.
 Excited State   8:      Singlet-?Sym   37.7759 eV   32.82 nm  f=0.0000  <S**2>=0.000
       4 ->  9        -0.49994
       5 ->  8         0.49994

 Excited state symmetry could not be determined.
 Excited State   9:      Singlet-?Sym   37.9887 eV   32.64 nm  f=0.0000  <S**2>=0.000
       4 ->  9         0.49986
       5 ->  8         0.49986

 Excited state symmetry could not be determined.
 Excited State  10:      Singlet-?Sym   37.9887 eV   32.64 nm  f=0.0000  <S**2>=0.000
       4 ->  8         0.49986
       5 ->  9        -0.49986

 Excited state symmetry could not be determined.
 Excited State  11:      Singlet-?Sym   38.8886 eV   31.88 nm  f=0.0197  <S**2>=0.000
       5 -> 10         0.70351

 Excited state symmetry could not be determined.
 Excited State  12:      Singlet-?Sym   38.8886 eV   31.88 nm  f=0.0197  <S**2>=0.000
       4 -> 10         0.70351

 Excited State  13:      Singlet-SG    41.6650 eV   29.76 nm  f=0.2081  <S**2>=0.000
       2 ->  7        -0.11815
       3 -> 10         0.55111
       4 ->  8        -0.29068
       5 ->  9        -0.29068

 Excited state symmetry could not be determined.
 Excited State  14:      Singlet-?Sym   42.0113 eV   29.51 nm  f=0.0015  <S**2>=0.000
       3 ->  8         0.64457
       3 ->  9        -0.28576

 Excited state symmetry could not be determined.
 Excited State  15:      Singlet-?Sym   42.0113 eV   29.51 nm  f=0.0015  <S**2>=0.000
       3 ->  8         0.28576
       3 ->  9         0.64457

 Excited state symmetry could not be determined.
 Excited State  16:      Singlet-?Sym   45.0215 eV   27.54 nm  f=0.2430  <S**2>=0.000
       4 -> 11         0.46775
       5 -> 11         0.52597

 Excited state symmetry could not be determined.
 Excited State  17:      Singlet-?Sym   45.0215 eV   27.54 nm  f=0.2430  <S**2>=0.000
       4 -> 11         0.52597
       5 -> 11        -0.46775

 Excited State  18:      Singlet-SG    45.8528 eV   27.04 nm  f=0.0651  <S**2>=0.000
       2 ->  7         0.66532
       3 -> 10         0.19367

 Excited state symmetry could not be determined.
 Excited State  19:      Singlet-?Sym   47.5915 eV   26.05 nm  f=0.0000  <S**2>=0.000
       4 -> 13        -0.49985
       5 -> 12         0.49985

 Excited state symmetry could not be determined.
 Excited State  20:      Singlet-?Sym   47.5915 eV   26.05 nm  f=0.0000  <S**2>=0.000
       4 -> 12         0.49985
       5 -> 13         0.49985

 Excited state symmetry could not be determined.
 Excited State  21:      Singlet-?Sym   47.7251 eV   25.98 nm  f=0.0000  <S**2>=0.000
       4 -> 12         0.49988
       5 -> 13        -0.49988

 Excited State  22:      Singlet-SG    48.3491 eV   25.64 nm  f=0.1767  <S**2>=0.000
       2 ->  7         0.12585
       3 -> 11         0.56278
       4 -> 13        -0.28216
       5 -> 12        -0.28216

 Excited State  23:      Singlet-SG    49.5468 eV   25.02 nm  f=0.5298  <S**2>=0.000
       3 -> 10         0.17920
       3 -> 11         0.38598
       4 ->  8         0.19558
       4 -> 13         0.32509
       5 ->  9         0.19558
       5 -> 12         0.32509

 Excited state symmetry could not be determined.
 Excited State  24:      Singlet-?Sym   52.3025 eV   23.71 nm  f=0.4861  <S**2>=0.000
       3 -> 12        -0.39150
       3 -> 13         0.58366

 Excited state symmetry could not be determined.
 Excited State  25:      Singlet-?Sym   52.3025 eV   23.71 nm  f=0.4861  <S**2>=0.000
       3 -> 12         0.58366
       3 -> 13         0.39150

 Excited State  26:      Singlet-SG    52.8072 eV   23.48 nm  f=0.1634  <S**2>=0.000
       2 ->  7        -0.13737
       2 -> 10         0.15380
       2 -> 11         0.19729
       3 -> 10         0.33152
       3 -> 11        -0.14946
       4 ->  8         0.28754
       4 -> 13        -0.23990
       5 ->  9         0.28754
       5 -> 12        -0.23990

 Excited state symmetry could not be determined.
 Excited State  27:      Singlet-?Sym   60.0343 eV   20.65 nm  f=0.2088  <S**2>=0.000
       2 ->  8         0.68975
       2 ->  9        -0.14858

 Excited state symmetry could not be determined.
 Excited State  28:      Singlet-?Sym   60.0343 eV   20.65 nm  f=0.2088  <S**2>=0.000
       2 ->  8         0.14858
       2 ->  9         0.68975

 Excited State  29:      Singlet-SG    61.4591 eV   20.17 nm  f=0.0668  <S**2>=0.000
       2 -> 10         0.67057
       2 -> 11        -0.17287

 Excited state symmetry could not be determined.
 Excited State  30:      Singlet-?Sym   69.2605 eV   17.90 nm  f=0.0023  <S**2>=0.000
       2 -> 12         0.52628
       2 -> 13         0.45951

 Excited state symmetry could not be determined.
 Excited State  31:      Singlet-?Sym   69.2605 eV   17.90 nm  f=0.0023  <S**2>=0.000
       2 -> 12        -0.45951
       2 -> 13         0.52628

 Excited State  32:      Singlet-SG    69.6732 eV   17.80 nm  f=0.0000  <S**2>=0.000
       2 -> 10         0.10634
       2 -> 11         0.62990
       3 -> 10        -0.10740
       3 -> 14        -0.21804
       4 ->  8        -0.11638
       5 ->  9        -0.11638

 Excited state symmetry could not be determined.
 Excited State  33:      Singlet-?Sym   70.0051 eV   17.71 nm  f=0.0073  <S**2>=0.000
       4 -> 14         0.28891
       5 -> 14         0.63421

 Excited state symmetry could not be determined.
 Excited State  34:      Singlet-?Sym   70.0051 eV   17.71 nm  f=0.0073  <S**2>=0.000
       4 -> 14         0.63421
       5 -> 14        -0.28891

 Excited State  35:      Singlet-SG    75.4936 eV   16.42 nm  f=0.0173  <S**2>=0.000
       2 -> 11         0.17696
       3 -> 14         0.66375

 Excited state symmetry could not be determined.
 Excited State  36:      Singlet-?Sym   90.8439 eV   13.65 nm  f=0.0000  <S**2>=0.000
       4 -> 15        -0.33357
       4 -> 16        -0.37247
       5 -> 15         0.37247
       5 -> 16        -0.33357

 Excited state symmetry could not be determined.
 Excited State  37:      Singlet-?Sym   90.8439 eV   13.65 nm  f=0.0000  <S**2>=0.000
       4 -> 15         0.37247
       4 -> 16        -0.33357
       5 -> 15         0.33357
       5 -> 16         0.37247

 Excited State  38:      Singlet-SG    92.0085 eV   13.48 nm  f=0.0403  <S**2>=0.000
       2 -> 14         0.70484

 Excited state symmetry could not be determined.
 Excited State  39:      Singlet-?Sym   94.9580 eV   13.06 nm  f=0.0000  <S**2>=0.000
       3 -> 15         0.70695

 Excited state symmetry could not be determined.
 Excited State  40:      Singlet-?Sym   94.9580 eV   13.06 nm  f=0.0000  <S**2>=0.000
       3 -> 16         0.70695

 Excited state symmetry could not be determined.
 Excited State  41:      Singlet-?Sym   96.6160 eV   12.83 nm  f=0.9369  <S**2>=0.000
       3 -> 17        -0.26020
       3 -> 18        -0.12679
       4 -> 15        -0.19884
       4 -> 16         0.40804
       5 -> 15         0.40804
       5 -> 16         0.19884

 Excited state symmetry could not be determined.
 Excited State  42:      Singlet-?Sym   96.6160 eV   12.83 nm  f=0.9369  <S**2>=0.000
       3 -> 17        -0.12679
       3 -> 18         0.26020
       4 -> 15         0.40804
       4 -> 16         0.19884
       5 -> 15         0.19884
       5 -> 16        -0.40804

 Excited state symmetry could not be determined.
 Excited State  43:      Singlet-?Sym   99.5138 eV   12.46 nm  f=0.0000  <S**2>=0.000
       4 -> 17         0.49997
       5 -> 18         0.49997

 Excited state symmetry could not be determined.
 Excited State  44:      Singlet-?Sym   99.5138 eV   12.46 nm  f=0.0000  <S**2>=0.000
       4 -> 18        -0.49997
       5 -> 17         0.49997

 Excited state symmetry could not be determined.
 Excited State  45:      Singlet-?Sym   99.5181 eV   12.46 nm  f=0.0000  <S**2>=0.000
       4 -> 17         0.49996
       5 -> 18        -0.49996

 Excited state symmetry could not be determined.
 Excited State  46:      Singlet-?Sym  105.5262 eV   11.75 nm  f=0.7191  <S**2>=0.000
       3 -> 19         0.11377
       4 -> 18         0.49102
       5 -> 17         0.49102

 Excited state symmetry could not be determined.
 Excited State  47:      Singlet-?Sym  107.4918 eV   11.53 nm  f=0.8355  <S**2>=0.000
       3 -> 17         0.58662
       3 -> 18        -0.25776
       4 -> 16         0.18109
       5 -> 15         0.18109

 Excited state symmetry could not be determined.
 Excited State  48:      Singlet-?Sym  107.4918 eV   11.53 nm  f=0.8355  <S**2>=0.000
       3 -> 17         0.25776
       3 -> 18         0.58662
       4 -> 15        -0.18109
       5 -> 16         0.18109

 Excited state symmetry could not be determined.
 Excited State  49:      Singlet-?Sym  113.8951 eV   10.89 nm  f=0.0000  <S**2>=0.000
       2 -> 15         0.70696

 Excited state symmetry could not be determined.
 Excited State  50:      Singlet-?Sym  113.8951 eV   10.89 nm  f=0.0000  <S**2>=0.000
       2 -> 16         0.70696

 Excited state symmetry could not be determined.
 Excited State  51:      Singlet-?Sym  122.3657 eV   10.13 nm  f=0.0026  <S**2>=0.000
       2 -> 17         0.68077
       2 -> 18        -0.14979
       5 -> 19        -0.11483

 Excited state symmetry could not be determined.
 Excited State  52:      Singlet-?Sym  122.3657 eV   10.13 nm  f=0.0026  <S**2>=0.000
       2 -> 17         0.14979
       2 -> 18         0.68077
       4 -> 19        -0.11483

 Excited state symmetry could not be determined.
 Excited State  53:      Singlet-?Sym  123.3368 eV   10.05 nm  f=0.1703  <S**2>=0.000
       2 -> 17         0.11573
       5 -> 19         0.68605

 Excited state symmetry could not be determined.
 Excited State  54:      Singlet-?Sym  123.3368 eV   10.05 nm  f=0.1703  <S**2>=0.000
       2 -> 18         0.11573
       4 -> 19         0.68605

 Excited State  55:      Singlet-SG   128.8733 eV    9.62 nm  f=0.2695  <S**2>=0.000
       3 -> 19         0.69759

 Excited State  56:      Singlet-SG   144.6821 eV    8.57 nm  f=0.0005  <S**2>=0.000
       2 -> 19         0.70701

 The electronic state is 1-SG.
 Alpha  occ. eigenvalues --  -24.78252  -1.25824  -0.61503  -0.47732  -0.47732
 Alpha virt. eigenvalues --    0.13959   0.66433   1.22018   1.22018   1.23707
 Alpha virt. eigenvalues --    1.44157   1.54763   1.54763   2.37441   3.18985
 Alpha virt. eigenvalues --    3.18985   3.50610   3.50610   4.33968

 Mulliken charges:
               1
     1  F   -0.234909
     2  H    0.234909
 Sum of Mulliken charges =  -0.00000

 Dipole moment (field-independent basis, Debye):
    X=              0.0000    Y=              0.0000    Z=             -1.8714  Tot=              1.8714
 Quadrupole moment (field-independent basis, Debye-Ang):
   XX=             -5.3742   YY=             -5.3742   ZZ=             -3.4716
   XY=              0.0000   XZ=              0.0000   YZ=              0.0000

 Normal termination of Gaussian 16 at Sat Aug 14 23:27:17 2021.
