 Gaussian 16, Revision C.01,
 Gaussian 16:  EM64L-G16RevC.01  3-Jul-2019

 ----------------------------------------------------------------------
 #P TD(Nstates=10000) wB97XD/def2SVP SCF(maxcycles=100) Int(Grid=ultraf
 ine)
 ----------------------------------------------------------------------

 ---------------------
 xGDB7_00001_tier4.com
 ---------------------
 Symbolic Z-matrix:
 Charge =  0 Multiplicity = 1

                         Standard orientation:
 ---------------------------------------------------------------------
 Center     Atomic      Atomic             Coordinates (Angstroms)
 Number     Number       Type             X           Y           Z
 ---------------------------------------------------------------------
      1          6           0        0.000000    1.163245   -0.188096
      2          8           0       -0.000000   -0.000000    0.577210
      3          6           0       -0.000000   -1.163245   -0.188096
      4          1           0        0.000000    2.022023    0.496924
      5          1           0       -0.895343    1.233464   -0.838594
      6          1           0        0.895343    1.233464   -0.838594
      7          1           0       -0.000000   -2.022023    0.496924
      8          1           0        0.895343   -1.233464   -0.838594
      9          1           0       -0.895343   -1.233464   -0.838594
 ---------------------------------------------------------------------

 SCF Done:  E(RwB97XD) =  -154.860288570     A.U. after   12 cycles

 Excitation energies and oscillator strengths:

 Excited State   1:      Singlet-B1     8.1229 eV  152.64 nm  f=0.0839  <S**2>=0.000
      13 -> 14         0.68905
      13 -> 18         0.14359
 This state for optimization and/or second-order correction.
 Total Energy, E(TD-HF/TD-DFT) =  -154.561779098
 Copying the excited state density for this state as the 1-particle RhoCI density.

 Excited State   2:      Singlet-B1     9.6059 eV  129.07 nm  f=0.0468  <S**2>=0.000
      13 -> 14        -0.14743
      13 -> 18         0.68387

 Excited State   3:      Singlet-A2     9.6559 eV  128.40 nm  f=0.0000  <S**2>=0.000
      10 -> 14        -0.10349
      13 -> 15         0.69479

 Excited State   4:      Singlet-B1     9.7905 eV  126.64 nm  f=0.0274  <S**2>=0.000
      13 -> 16         0.69684

 Excited State   5:      Singlet-A1     9.8543 eV  125.82 nm  f=0.0353  <S**2>=0.000
      12 -> 14         0.67824
      12 -> 18         0.14974
      13 -> 17         0.10045

 Excited State   6:      Singlet-A1    10.2152 eV  121.37 nm  f=0.1264  <S**2>=0.000
      12 -> 18        -0.12678
      13 -> 17         0.68190

 Excited State   7:      Singlet-A2    10.5878 eV  117.10 nm  f=0.0000  <S**2>=0.000
      13 -> 19         0.68553
      13 -> 21        -0.12482

 Excited State   8:      Singlet-B2    10.8961 eV  113.79 nm  f=0.0999  <S**2>=0.000
      13 -> 20         0.69089

 Excited State   9:      Singlet-B2    11.0742 eV  111.96 nm  f=0.0344  <S**2>=0.000
      11 -> 14        -0.43700
      12 -> 15         0.53702
      13 -> 20         0.11142

 Excited State  10:      Singlet-A1    11.3522 eV  109.22 nm  f=0.1111  <S**2>=0.000
      12 -> 14        -0.14132
      12 -> 16         0.30161
      12 -> 18         0.60764

 Excited State  11:      Singlet-B1    11.6208 eV  106.69 nm  f=0.1215  <S**2>=0.000
      12 -> 17         0.69920

 Excited State  12:      Singlet-A1    11.6952 eV  106.01 nm  f=0.0179  <S**2>=0.000
      12 -> 16         0.62402
      12 -> 18        -0.27988
      13 -> 17        -0.12046

 Excited State  13:      Singlet-A2    11.7157 eV  105.83 nm  f=0.0000  <S**2>=0.000
      10 -> 14         0.64676
      10 -> 18         0.11058
      13 -> 21        -0.20340

 Excited State  14:      Singlet-B2    11.7354 eV  105.65 nm  f=0.0149  <S**2>=0.000
      11 -> 14         0.51615
      11 -> 16         0.11276
      11 -> 18         0.15404
      12 -> 15         0.43370

 Excited State  15:      Singlet-A2    12.2965 eV  100.83 nm  f=0.0000  <S**2>=0.000
      10 -> 14         0.18044
      11 -> 17        -0.16251
      12 -> 20         0.36785
      13 -> 21         0.52601

 Excited State  16:      Singlet-B2    12.3016 eV  100.79 nm  f=0.3194  <S**2>=0.000
      11 -> 16        -0.10046
      11 -> 18         0.12563
      12 -> 19         0.67693

 Excited State  17:      Singlet-A2    12.4634 eV   99.48 nm  f=0.0000  <S**2>=0.000
      10 -> 14        -0.12436
      11 -> 17        -0.19728
      12 -> 20         0.53602
      13 -> 21        -0.37961

 Excited State  18:      Singlet-A1    12.9415 eV   95.80 nm  f=0.1278  <S**2>=0.000
       8 -> 14         0.24289
      11 -> 15         0.64851

 Excited State  19:      Singlet-B2    13.0252 eV   95.19 nm  f=0.3747  <S**2>=0.000
       8 -> 15        -0.10324
      11 -> 14        -0.14992
      11 -> 16         0.35963
      11 -> 18         0.53293
      12 -> 15        -0.10931
      12 -> 21        -0.16733

 Excited State  20:      Singlet-B1    13.3170 eV   93.10 nm  f=0.3483  <S**2>=0.000
       9 -> 14         0.29905
      10 -> 15         0.63297

 Excited State  21:      Singlet-A2    13.3371 eV   92.96 nm  f=0.0000  <S**2>=0.000
       8 -> 20         0.11120
      11 -> 17         0.63822
      12 -> 20         0.25095

 Excited State  22:      Singlet-B2    13.4437 eV   92.22 nm  f=0.1241  <S**2>=0.000
       8 -> 19         0.10257
      10 -> 17         0.25751
      11 -> 16         0.50284
      11 -> 18        -0.36458
      12 -> 19         0.12962

 Excited State  23:      Singlet-A2    13.4741 eV   92.02 nm  f=0.0000  <S**2>=0.000
       9 -> 19        -0.10601
      10 -> 16        -0.26832
      10 -> 18         0.62224

 Excited State  24:      Singlet-A2    13.7658 eV   90.07 nm  f=0.0000  <S**2>=0.000
       9 -> 15        -0.12142
      10 -> 16         0.61460
      10 -> 18         0.26288

 Excited State  25:      Singlet-B2    13.8781 eV   89.34 nm  f=0.1107  <S**2>=0.000
       7 -> 14         0.12346
      10 -> 17         0.56184
      11 -> 16        -0.25532
      12 -> 21        -0.26630

 Excited State  26:      Singlet-B1    14.0741 eV   88.09 nm  f=0.0078  <S**2>=0.000
       8 -> 17         0.19301
       9 -> 16         0.11166
      10 -> 19         0.19216
      11 -> 20         0.63047

 Excited State  27:      Singlet-B1    14.2296 eV   87.13 nm  f=0.0018  <S**2>=0.000
       9 -> 14        -0.40662
       9 -> 18        -0.19859
      10 -> 15         0.15053
      10 -> 19         0.48922
      11 -> 20        -0.10846

 Excited State  28:      Singlet-A1    14.2816 eV   86.81 nm  f=0.0563  <S**2>=0.000
       8 -> 14         0.43411
       8 -> 16         0.18701
       8 -> 18         0.12761
      10 -> 20         0.26656
      11 -> 15        -0.14481
      11 -> 19         0.37295
      11 -> 21         0.10515

 Excited State  29:      Singlet-B1    14.4279 eV   85.93 nm  f=0.2226  <S**2>=0.000
       9 -> 14         0.46138
       9 -> 16         0.21763
      10 -> 15        -0.23028
      10 -> 19         0.36881
      11 -> 20        -0.20115

 Excited State  30:      Singlet-B2    14.4288 eV   85.93 nm  f=0.0385  <S**2>=0.000
       7 -> 14         0.33893
      10 -> 17         0.20574
      11 -> 18         0.10965
      12 -> 21         0.55878

 Excited State  31:      Singlet-A1    14.4802 eV   85.62 nm  f=0.2722  <S**2>=0.000
       8 -> 14        -0.43600
      10 -> 20         0.11327
      11 -> 15         0.14408
      11 -> 19         0.49032

 Excited State  32:      Singlet-B2    14.7688 eV   83.95 nm  f=0.0351  <S**2>=0.000
       7 -> 14         0.58875
       8 -> 15         0.11283
      10 -> 17        -0.19922
      11 -> 18        -0.12323
      12 -> 21        -0.24575

 Excited State  33:      Singlet-A1    15.1867 eV   81.64 nm  f=0.0558  <S**2>=0.000
       7 -> 15         0.13776
       8 -> 14        -0.15452
      10 -> 20         0.58214
      11 -> 15         0.10787
      11 -> 19        -0.27134

 Excited State  34:      Singlet-A1    15.6837 eV   79.05 nm  f=0.0093  <S**2>=0.000
       7 -> 15        -0.28877
       8 -> 14        -0.17535
       8 -> 16         0.27019
       8 -> 18         0.39494
      10 -> 20        -0.11175
      11 -> 21         0.33337

 Excited State  35:      Singlet-B1    15.7144 eV   78.90 nm  f=0.0246  <S**2>=0.000
       8 -> 17         0.10983
       9 -> 14        -0.13632
       9 -> 18         0.62611
      10 -> 19         0.12914
      10 -> 21         0.18822

 Excited State  36:      Singlet-A2    15.8103 eV   78.42 nm  f=0.0000  <S**2>=0.000
       9 -> 15         0.67557
       9 -> 19         0.12998
      10 -> 14        -0.10219

 Excited State  37:      Singlet-B2    15.8742 eV   78.10 nm  f=0.1859  <S**2>=0.000
       7 -> 16        -0.20643
       7 -> 18         0.39059
       8 -> 15         0.53228

 Excited State  38:      Singlet-A2    15.9880 eV   77.55 nm  f=0.0000  <S**2>=0.000
       7 -> 17         0.69748

 Excited State  39:      Singlet-A1    16.0610 eV   77.20 nm  f=0.0679  <S**2>=0.000
       7 -> 15         0.48623
       8 -> 18         0.23075
       9 -> 17         0.37859
      10 -> 20        -0.19561

 Excited State  40:      Singlet-B2    16.0900 eV   77.06 nm  f=0.0002  <S**2>=0.000
       7 -> 16         0.59700
       7 -> 18        -0.14061
       8 -> 15         0.31505

 Excited State  41:      Singlet-B2    16.1121 eV   76.95 nm  f=0.4410  <S**2>=0.000
       7 -> 16         0.27794
       7 -> 18         0.53651
       8 -> 15        -0.27075
       8 -> 19        -0.14220
      10 -> 17        -0.10426

 Excited State  42:      Singlet-B1    16.1523 eV   76.76 nm  f=0.0030  <S**2>=0.000
       8 -> 17         0.42616
       9 -> 16         0.45090
       9 -> 18        -0.16402
      10 -> 19        -0.19446
      10 -> 21         0.12580
      11 -> 20        -0.14417

 Excited State  43:      Singlet-A1    16.1935 eV   76.56 nm  f=0.1449  <S**2>=0.000
       7 -> 15        -0.17902
       8 -> 16         0.33794
       8 -> 18        -0.36483
       9 -> 17         0.42347
      11 -> 19        -0.13833

 Excited State  44:      Singlet-B1    16.2376 eV   76.36 nm  f=0.0619  <S**2>=0.000
       8 -> 17         0.50738
       9 -> 16        -0.42911
      10 -> 19         0.12717
      11 -> 20        -0.12815

 Excited State  45:      Singlet-A1    16.4284 eV   75.47 nm  f=0.0161  <S**2>=0.000
       7 -> 15         0.29435
       7 -> 19        -0.13227
       8 -> 16         0.16126
       8 -> 18        -0.31856
       9 -> 17        -0.31612
      11 -> 21         0.38426

 Excited State  46:      Singlet-A1    16.7140 eV   74.18 nm  f=0.0038  <S**2>=0.000
       7 -> 15         0.16902
       8 -> 16         0.48236
       9 -> 17        -0.19932
      11 -> 21        -0.40497

 Excited State  47:      Singlet-A2    16.8537 eV   73.57 nm  f=0.0000  <S**2>=0.000
       9 -> 15        -0.12041
       9 -> 19         0.66966
      10 -> 16        -0.14305

 Excited State  48:      Singlet-B1    16.8696 eV   73.50 nm  f=0.0002  <S**2>=0.000
       7 -> 20         0.43000
       9 -> 16        -0.16767
       9 -> 18        -0.16853
      10 -> 21         0.48799

 Excited State  49:      Singlet-B2    16.9458 eV   73.17 nm  f=0.0000  <S**2>=0.000
       8 -> 19         0.46700
       9 -> 20         0.49916

 Excited State  50:      Singlet-A1    17.0231 eV   72.83 nm  f=0.1055  <S**2>=0.000
       7 -> 19         0.66210
      11 -> 21         0.16021

 Excited State  51:      Singlet-A2    17.0295 eV   72.81 nm  f=0.0000  <S**2>=0.000
       8 -> 20         0.69188
      11 -> 17        -0.11047

 Excited State  52:      Singlet-B1    17.0736 eV   72.62 nm  f=0.2609  <S**2>=0.000
       7 -> 20         0.52396
      10 -> 21        -0.42596
      13 -> 22         0.13151

 Excited State  53:      Singlet-B2    17.3832 eV   71.32 nm  f=0.0000  <S**2>=0.000
       8 -> 19        -0.46615
       9 -> 20         0.46772

 Excited State  54:      Singlet-B1    17.6044 eV   70.43 nm  f=0.0568  <S**2>=0.000
       7 -> 20        -0.11077
      13 -> 22         0.68671

 Excited State  55:      Singlet-A2    18.3831 eV   67.44 nm  f=0.0000  <S**2>=0.000
       9 -> 21         0.14258
      13 -> 24         0.67550

 Excited State  56:      Singlet-B2    18.7185 eV   66.24 nm  f=0.0225  <S**2>=0.000
       8 -> 21         0.61830
      13 -> 23        -0.29266

 Excited State  57:      Singlet-A2    18.7715 eV   66.05 nm  f=0.0000  <S**2>=0.000
       9 -> 21         0.67140
      13 -> 24        -0.16056

 Excited State  58:      Singlet-A1    18.8892 eV   65.64 nm  f=0.0106  <S**2>=0.000
       6 -> 14         0.39102
       7 -> 21         0.42266
      12 -> 22         0.21322
      13 -> 25         0.33172

 Excited State  59:      Singlet-B2    18.9888 eV   65.29 nm  f=0.0152  <S**2>=0.000
       8 -> 21         0.30614
      13 -> 23         0.62163

 Excited State  60:      Singlet-A1    19.0768 eV   64.99 nm  f=0.0057  <S**2>=0.000
       6 -> 14         0.55462
       7 -> 21        -0.19596
      13 -> 25        -0.34269

 Excited State  61:      Singlet-A1    19.3431 eV   64.10 nm  f=0.0961  <S**2>=0.000
      12 -> 22         0.60260
      13 -> 25        -0.33390

 Excited State  62:      Singlet-B1    19.4260 eV   63.82 nm  f=0.0347  <S**2>=0.000
      13 -> 26         0.69274

 Excited State  63:      Singlet-B2    20.2107 eV   61.35 nm  f=0.1362  <S**2>=0.000
       5 -> 14         0.18143
       6 -> 15         0.53662
      12 -> 24        -0.39071

 Excited State  64:      Singlet-A1    20.3953 eV   60.79 nm  f=0.0758  <S**2>=0.000
       6 -> 18         0.23273
       7 -> 21         0.42935
      12 -> 22        -0.23204
      12 -> 26         0.29714
      13 -> 25        -0.28189

 Excited State  65:      Singlet-A2    20.4596 eV   60.60 nm  f=0.0000  <S**2>=0.000
      10 -> 22         0.15778
      12 -> 23         0.67344

 Excited State  66:      Singlet-A1    20.4884 eV   60.51 nm  f=0.0045  <S**2>=0.000
       6 -> 16         0.66384
       7 -> 19         0.10534

 Excited State  67:      Singlet-B1    20.5026 eV   60.47 nm  f=0.0223  <S**2>=0.000
       6 -> 17         0.67192
       7 -> 20         0.10220
      12 -> 25         0.13667

 Excited State  68:      Singlet-A1    20.5756 eV   60.26 nm  f=0.1078  <S**2>=0.000
       6 -> 18         0.62964
      11 -> 24         0.12919
      12 -> 26        -0.19200

 Excited State  69:      Singlet-B2    20.5825 eV   60.24 nm  f=0.0235  <S**2>=0.000
       6 -> 15         0.35542
      11 -> 22         0.20813
      11 -> 26        -0.15405
      12 -> 24         0.51162

 Excited State  70:      Singlet-B1    20.8027 eV   59.60 nm  f=0.0297  <S**2>=0.000
       6 -> 17        -0.13599
      12 -> 25         0.67213

 Excited State  71:      Singlet-B2    21.1893 eV   58.51 nm  f=0.0001  <S**2>=0.000
       5 -> 14        -0.11465
       5 -> 16         0.17696
       6 -> 19         0.64219
      11 -> 22        -0.13841

 Excited State  72:      Singlet-A2    21.2419 eV   58.37 nm  f=0.0000  <S**2>=0.000
       5 -> 17         0.17240
       6 -> 20         0.67158

 Excited State  73:      Singlet-B2    21.3385 eV   58.10 nm  f=0.0258  <S**2>=0.000
       5 -> 14         0.64369
       5 -> 16         0.11028
       5 -> 18         0.13462
       6 -> 15        -0.16001

 Excited State  74:      Singlet-A1    21.3697 eV   58.02 nm  f=0.0501  <S**2>=0.000
       5 -> 15        -0.11180
       6 -> 18         0.12431
       7 -> 21        -0.22962
      11 -> 24        -0.28756
      12 -> 26         0.51548
      13 -> 25         0.15505

 Excited State  75:      Singlet-A2    21.5745 eV   57.47 nm  f=0.0000  <S**2>=0.000
      10 -> 22         0.64878
      11 -> 25        -0.11860
      12 -> 23        -0.15642
      13 -> 27         0.10371

 Excited State  76:      Singlet-B2    21.6297 eV   57.32 nm  f=0.1418  <S**2>=0.000
       6 -> 15        -0.15989
       6 -> 19         0.12741
      11 -> 22         0.60582
      11 -> 26         0.20740

 Excited State  77:      Singlet-B1    22.1699 eV   55.92 nm  f=0.0170  <S**2>=0.000
       8 -> 25         0.13660
       9 -> 22        -0.10694
      10 -> 24        -0.31150
      11 -> 23         0.58492
      12 -> 25         0.12758

 Excited State  78:      Singlet-A1    22.3392 eV   55.50 nm  f=0.0048  <S**2>=0.000
       5 -> 15        -0.18172
       8 -> 26         0.13348
      10 -> 23         0.16931
      11 -> 24         0.56965
      12 -> 26         0.26232

 Excited State  79:      Singlet-A2    22.5407 eV   55.00 nm  f=0.0000  <S**2>=0.000
       5 -> 17        -0.20915
       8 -> 23         0.15924
      10 -> 22         0.10143
      11 -> 25         0.62118

 Excited State  80:      Singlet-B1    22.5977 eV   54.87 nm  f=0.2597  <S**2>=0.000
       9 -> 26         0.11144
      10 -> 24         0.57990
      11 -> 23         0.30920
      13 -> 28         0.14967

 Excited State  81:      Singlet-B2    22.7861 eV   54.41 nm  f=0.0412  <S**2>=0.000
       5 -> 14        -0.10156
       5 -> 18         0.62371
       6 -> 19         0.11194
       6 -> 21         0.17184
      11 -> 26         0.18308

 Excited State  82:      Singlet-A1    22.9516 eV   54.02 nm  f=0.0097  <S**2>=0.000
       5 -> 15         0.52351
      10 -> 23         0.40262
      13 -> 29        -0.12123

 Excited State  83:      Singlet-B2    23.0151 eV   53.87 nm  f=0.1426  <S**2>=0.000
       5 -> 16         0.47254
       6 -> 19        -0.12666
       6 -> 21         0.14290
       8 -> 24         0.13661
      10 -> 25         0.24160
      11 -> 22        -0.10131
      11 -> 26         0.34725

 Excited State  84:      Singlet-A2    23.0526 eV   53.78 nm  f=0.0000  <S**2>=0.000
       9 -> 24         0.23121
      10 -> 26         0.60229
      13 -> 27        -0.20528

 Excited State  85:      Singlet-A1    23.0840 eV   53.71 nm  f=0.0763  <S**2>=0.000
       5 -> 15        -0.38571
       7 -> 24        -0.15037
      10 -> 23         0.47915
      11 -> 24        -0.16427
      12 -> 26        -0.11846

 Excited State  86:      Singlet-B2    23.1569 eV   53.54 nm  f=0.0740  <S**2>=0.000
       5 -> 16        -0.40968
       6 -> 21        -0.10908
       7 -> 22        -0.13359
      10 -> 25         0.42725
      11 -> 26         0.23493

 Excited State  87:      Singlet-A2    23.1851 eV   53.48 nm  f=0.0000  <S**2>=0.000
       5 -> 17         0.63049
       6 -> 20        -0.13850
      10 -> 22         0.10317
      10 -> 26        -0.11300
      11 -> 25         0.19411

 Excited State  88:      Singlet-B2    23.3851 eV   53.02 nm  f=0.0534  <S**2>=0.000
       6 -> 21         0.29502
       7 -> 22        -0.13111
       7 -> 26        -0.12872
      10 -> 25         0.38336
      11 -> 22         0.11389
      11 -> 26        -0.36999
      12 -> 24        -0.16679

 Excited State  89:      Singlet-A2    23.3889 eV   53.01 nm  f=0.0000  <S**2>=0.000
       5 -> 17         0.11489
       9 -> 24         0.10107
      10 -> 26         0.17180
      13 -> 27         0.65465

 Excited State  90:      Singlet-B1    23.5350 eV   52.68 nm  f=0.0116  <S**2>=0.000
       5 -> 20        -0.22877
       9 -> 22         0.46120
      10 -> 24        -0.13052
      13 -> 28         0.43480

 Excited State  91:      Singlet-A1    23.6275 eV   52.47 nm  f=0.0153  <S**2>=0.000
       8 -> 22         0.27305
      10 -> 23         0.11470
      13 -> 29         0.62555

 Excited State  92:      Singlet-B2    23.6414 eV   52.44 nm  f=0.0108  <S**2>=0.000
       5 -> 16        -0.17244
       5 -> 18        -0.14248
       6 -> 21         0.38072
       7 -> 22         0.52633

 Excited State  93:      Singlet-B1    23.7018 eV   52.31 nm  f=0.0941  <S**2>=0.000
       7 -> 23         0.11345
       9 -> 22        -0.41758
      13 -> 28         0.51137
      13 -> 31         0.12455

 Excited State  94:      Singlet-A1    23.8721 eV   51.94 nm  f=0.0228  <S**2>=0.000
       5 -> 19         0.63373
       8 -> 22        -0.21163
      13 -> 29         0.12392

 Excited State  95:      Singlet-B2    23.9001 eV   51.88 nm  f=0.1347  <S**2>=0.000
       5 -> 16        -0.12380
       5 -> 18        -0.17386
       6 -> 21         0.43578
       7 -> 22        -0.40352
      10 -> 25        -0.22511
      12 -> 27        -0.12812

 Excited State  96:      Singlet-B1    24.0742 eV   51.50 nm  f=0.0061  <S**2>=0.000
       5 -> 20         0.64710
       9 -> 22         0.20479
      13 -> 31        -0.13346

 Excited State  97:      Singlet-A2    24.1188 eV   51.41 nm  f=0.0000  <S**2>=0.000
       9 -> 24        -0.12587
      13 -> 30         0.67683

 Excited State  98:      Singlet-A1    24.2945 eV   51.03 nm  f=0.0549  <S**2>=0.000
       5 -> 19         0.22374
       7 -> 24         0.14560
       8 -> 22         0.58066
      10 -> 23        -0.11172
      13 -> 29        -0.20991

 Excited State  99:      Singlet-B1    24.4419 eV   50.73 nm  f=0.0473  <S**2>=0.000
       7 -> 23        -0.13049
       9 -> 22         0.15561
      12 -> 29        -0.11621
      13 -> 31         0.62853
      13 -> 34        -0.16585

 Excited State 100:      Singlet-A2    24.8480 eV   49.90 nm  f=0.0000  <S**2>=0.000
       7 -> 25         0.14005
       9 -> 24         0.19543
      10 -> 26        -0.17207
      10 -> 28        -0.12430
      13 -> 32         0.62087

 Excited State 101:      Singlet-A2    24.8855 eV   49.82 nm  f=0.0000  <S**2>=0.000
       7 -> 25        -0.12703
       8 -> 23        -0.17400
       9 -> 24         0.57494
      10 -> 26        -0.22565
      13 -> 30         0.12581
      13 -> 32        -0.20147

 Excited State 102:      Singlet-B2    24.8856 eV   49.82 nm  f=0.0050  <S**2>=0.000
       8 -> 24        -0.39471
      11 -> 26         0.13223
      12 -> 27         0.28261
      12 -> 30         0.12318
      13 -> 33         0.45008

 Excited State 103:      Singlet-B2    24.9292 eV   49.73 nm  f=0.0351  <S**2>=0.000
       7 -> 26         0.15046
       8 -> 24         0.45626
       9 -> 23         0.17652
      11 -> 26        -0.17625
      13 -> 33         0.43595

 Excited State 104:      Singlet-B1    25.0164 eV   49.56 nm  f=0.0038  <S**2>=0.000
       7 -> 23         0.51356
       8 -> 25         0.13790
      12 -> 29        -0.36097
      13 -> 34        -0.25636

 Excited State 105:      Singlet-B1    25.0359 eV   49.52 nm  f=0.0646  <S**2>=0.000
       9 -> 26         0.12590
      12 -> 29        -0.36669
      13 -> 31         0.10642
      13 -> 34         0.55496

 Excited State 106:      Singlet-A1    25.0807 eV   49.43 nm  f=0.0193  <S**2>=0.000
       7 -> 24         0.43192
       8 -> 26         0.21031
       9 -> 25        -0.20172

 The electronic state is 1-A1.
 Alpha  occ. eigenvalues --  -19.25313 -10.33830 -10.33829  -1.12956  -0.81330
 Alpha  occ. eigenvalues --   -0.72060  -0.56791  -0.55966  -0.55929  -0.47581
 Alpha  occ. eigenvalues --   -0.45861  -0.39782  -0.33752
 Alpha virt. eigenvalues --    0.14119   0.18878   0.20183   0.20819   0.21731
 Alpha virt. eigenvalues --    0.23425   0.24100   0.32779   0.50464   0.54433
 Alpha virt. eigenvalues --    0.55210   0.56442   0.59453   0.71342   0.71773

 Mulliken charges:
               1
     1  C    0.130198
     2  O   -0.410432
     3  C    0.130198
     4  H    0.047032
     5  H    0.013993
     6  H    0.013993
     7  H    0.047032
     8  H    0.013993
     9  H    0.013993
 Sum of Mulliken charges =   0.00000

 Dipole moment (field-independent basis, Debye):
    X=              0.0000    Y=              0.0000    Z=             -1.2863  Tot=              1.2863
 Quadrupole moment (field-independent basis, Debye-Ang):
   XX=            -20.0550   YY=            -17.0434   ZZ=            -20.9454
   XY=             -0.0000   XZ=             -0.0000   YZ=             -0.0000

 Normal termination of Gaussian 16 at Sat Aug 14 23:29:40 2021.
