 Gaussian 16, Revision C.01,
 Gaussian 16:  EM64L-G16RevC.01  3-Jul-2019

 ----------------------------------------------------------------------
 #P TD(Nstates=10000) wB97XD/def2SVP SCF(maxcycles=100) Int(Grid=ultraf
 ine)
 ----------------------------------------------------------------------

 ---------------------
 xGDB7_00001_tier4.com
 ---------------------
 Symbolic Z-matrix:
 Charge =  0 Multiplicity = 1

                         Standard orientation:
 ---------------------------------------------------------------------
 Center     Atomic      Atomic             Coordinates (Angstroms)
 Number     Number       Type             X           Y           Z
 ---------------------------------------------------------------------
      1          6           0        0.000000    0.000000    0.664999
      2          6           0        0.000000    0.000000   -0.664999
      3          1           0        0.000000    0.931103    1.239041
      4          1           0       -0.000000   -0.931103    1.239041
      5          1           0        0.000000    0.931103   -1.239041
      6          1           0       -0.000000   -0.931103   -1.239041
 ---------------------------------------------------------------------

 SCF Done:  E(RwB97XD) =  -78.5010668436     A.U. after   11 cycles

 Excitation energies and oscillator strengths:

 Excited State   1:      Singlet-B1U    8.1720 eV  151.72 nm  f=0.3980  <S**2>=0.000
       8 ->  9         0.70250
 This state for optimization and/or second-order correction.
 Total Energy, E(TD-HF/TD-DFT) =  -78.2007531491
 Copying the excited state density for this state as the 1-particle RhoCI density.

 Excited State   2:      Singlet-B1G    8.2891 eV  149.57 nm  f=0.0000  <S**2>=0.000
       7 ->  9         0.70288

 Excited State   3:      Singlet-B3U    9.1152 eV  136.02 nm  f=0.0059  <S**2>=0.000
       8 -> 10         0.70519

 Excited State   4:      Singlet-B1G    9.4339 eV  131.42 nm  f=0.0000  <S**2>=0.000
       8 -> 11         0.70191

 Excited State   5:      Singlet-B2G    9.7364 eV  127.34 nm  f=0.0000  <S**2>=0.000
       6 ->  9         0.68206
       8 -> 12        -0.17852

 Excited State   6:      Singlet-B2G   10.2489 eV  120.97 nm  f=0.0000  <S**2>=0.000
       6 ->  9         0.17613
       8 -> 12         0.68301

 Excited State   7:      Singlet-B3G   11.3196 eV  109.53 nm  f=0.0000  <S**2>=0.000
       7 -> 10         0.70056

 Excited State   8:      Singlet-AU    11.3543 eV  109.20 nm  f=0.0000  <S**2>=0.000
       5 ->  9         0.70064

 Excited State   9:      Singlet-B1U   12.0899 eV  102.55 nm  f=0.3913  <S**2>=0.000
       7 -> 11         0.70287

 Excited State  10:      Singlet-AU    12.1198 eV  102.30 nm  f=0.0000  <S**2>=0.000
       8 -> 13         0.69978

 Excited State  11:      Singlet-B2U   12.4527 eV   99.56 nm  f=0.4901  <S**2>=0.000
       5 -> 10         0.12030
       7 -> 12         0.69470

 Excited State  12:      Singlet-AG    13.3941 eV   92.57 nm  f=0.0000  <S**2>=0.000
       6 -> 10         0.69375
       7 -> 13         0.11126

 Excited State  13:      Singlet-B2U   13.6603 eV   90.76 nm  f=0.2152  <S**2>=0.000
       6 -> 11         0.69679

 Excited State  14:      Singlet-B1U   14.1937 eV   87.35 nm  f=0.3069  <S**2>=0.000
       6 -> 12         0.70086

 Excited State  15:      Singlet-B2U   14.7641 eV   83.98 nm  f=0.3410  <S**2>=0.000
       5 -> 10         0.69261
       7 -> 12        -0.12086

 Excited State  16:      Singlet-AG    14.8253 eV   83.63 nm  f=0.0000  <S**2>=0.000
       6 -> 10        -0.10716
       7 -> 13         0.68218
       8 -> 18         0.11577

 Excited State  17:      Singlet-B2G   15.0658 eV   82.30 nm  f=0.0000  <S**2>=0.000
       8 -> 14         0.70537

 Excited State  18:      Singlet-B3U   15.1997 eV   81.57 nm  f=0.0700  <S**2>=0.000
       4 ->  9         0.67187
       8 -> 15         0.19292

 Excited State  19:      Singlet-AG    15.5259 eV   79.86 nm  f=0.0000  <S**2>=0.000
       5 -> 11         0.68480

 Excited State  20:      Singlet-B3G   15.6033 eV   79.46 nm  f=0.0000  <S**2>=0.000
       5 -> 12         0.65495
       6 -> 13        -0.24091

 Excited State  21:      Singlet-B3G   15.9781 eV   77.60 nm  f=0.0000  <S**2>=0.000
       4 -> 11         0.17542
       5 -> 12         0.24464
       6 -> 13         0.63786

 Excited State  22:      Singlet-B3U   17.0224 eV   72.84 nm  f=0.1884  <S**2>=0.000
       4 ->  9        -0.16427
       8 -> 15         0.66506
       8 -> 17         0.16984

 Excited State  23:      Singlet-B2U   17.7448 eV   69.87 nm  f=0.3080  <S**2>=0.000
       7 -> 14         0.69346

 Excited State  24:      Singlet-B1U   17.7653 eV   69.79 nm  f=0.0109  <S**2>=0.000
       4 -> 10         0.41468
       5 -> 13         0.56923

 Excited State  25:      Singlet-B1G   17.9561 eV   69.05 nm  f=0.0000  <S**2>=0.000
       8 -> 16         0.70592

 Excited State  26:      Singlet-B1U   18.0487 eV   68.69 nm  f=0.0683  <S**2>=0.000
       4 -> 10         0.53496
       5 -> 13        -0.38867
       6 -> 14         0.20431

 Excited State  27:      Singlet-B3G   18.1595 eV   68.28 nm  f=0.0000  <S**2>=0.000
       4 -> 11         0.67974
       6 -> 13        -0.18029

 Excited State  28:      Singlet-AG    18.6951 eV   66.32 nm  f=0.0000  <S**2>=0.000
       4 -> 12         0.62447
       8 -> 18        -0.31133

 Excited State  29:      Singlet-B3U   18.9408 eV   65.46 nm  f=0.8277  <S**2>=0.000
       4 ->  9         0.13475
       8 -> 15        -0.13718
       8 -> 17         0.67806

 Excited State  30:      Singlet-B3G   19.0030 eV   65.24 nm  f=0.0000  <S**2>=0.000
       5 -> 14        -0.12862
       7 -> 15         0.69186

 Excited State  31:      Singlet-B1U   19.6578 eV   63.07 nm  f=0.2834  <S**2>=0.000
       4 -> 10        -0.14613
       6 -> 14         0.61074
       7 -> 16         0.25981
       8 -> 20        -0.15431

 Excited State  32:      Singlet-B2G   19.7411 eV   62.80 nm  f=0.0000  <S**2>=0.000
       3 ->  9         0.68574
       8 -> 19        -0.15322

 Excited State  33:      Singlet-AG    20.2031 eV   61.37 nm  f=0.0000  <S**2>=0.000
       4 -> 12         0.30005
       6 -> 15         0.36929
       8 -> 18         0.50299

 Excited State  34:      Singlet-B2U   20.7602 eV   59.72 nm  f=0.0408  <S**2>=0.000
       4 -> 13         0.69395

 Excited State  35:      Singlet-B3G   20.8473 eV   59.47 nm  f=0.0000  <S**2>=0.000
       5 -> 14         0.68740
       7 -> 15         0.12600

 Excited State  36:      Singlet-B3G   21.2367 eV   58.38 nm  f=0.0000  <S**2>=0.000
       7 -> 17         0.69292

 Excited State  37:      Singlet-AU    21.5622 eV   57.50 nm  f=0.0000  <S**2>=0.000
       7 -> 18         0.70129

 Excited State  38:      Singlet-B2G   21.6122 eV   57.37 nm  f=0.0000  <S**2>=0.000
       3 ->  9         0.14744
       8 -> 19         0.68562

 Excited State  39:      Singlet-B1U   21.6567 eV   57.25 nm  f=0.8651  <S**2>=0.000
       6 -> 14        -0.16049
       7 -> 16         0.58557
       8 -> 20         0.33888

 Excited State  40:      Singlet-AG    21.9954 eV   56.37 nm  f=0.0000  <S**2>=0.000
       6 -> 15         0.48101
       6 -> 17        -0.39746
       7 -> 24        -0.11100
       8 -> 18        -0.23762

 Excited State  41:      Singlet-B2U   22.2251 eV   55.79 nm  f=0.0298  <S**2>=0.000
       5 -> 15         0.65702
       6 -> 16         0.24808

 Excited State  42:      Singlet-B2U   22.4550 eV   55.21 nm  f=0.0539  <S**2>=0.000
       3 -> 11         0.12156
       5 -> 15        -0.23107
       5 -> 17         0.21096
       6 -> 16         0.57887
       7 -> 19         0.21743

 Excited State  43:      Singlet-B1U   22.4939 eV   55.12 nm  f=0.1579  <S**2>=0.000
       3 -> 12         0.24759
       6 -> 14         0.18015
       6 -> 19        -0.12609
       7 -> 16        -0.24229
       8 -> 20         0.54150

 Excited State  44:      Singlet-AG    22.6130 eV   54.83 nm  f=0.0000  <S**2>=0.000
       3 -> 10         0.59062
       6 -> 15         0.14930
       6 -> 17         0.34430

 Excited State  45:      Singlet-AG    22.7958 eV   54.39 nm  f=0.0000  <S**2>=0.000
       3 -> 10        -0.35954
       6 -> 15         0.26467
       6 -> 17         0.45523
       7 -> 24        -0.12807
       8 -> 18        -0.20355

 Excited State  46:      Singlet-B3U   23.2450 eV   53.34 nm  f=0.0980  <S**2>=0.000
       6 -> 18         0.69993

 Excited State  47:      Singlet-B2U   23.3121 eV   53.18 nm  f=0.0085  <S**2>=0.000
       3 -> 11         0.67358
       5 -> 17        -0.16785

 Excited State  48:      Singlet-B1G   23.6957 eV   52.32 nm  f=0.0000  <S**2>=0.000
       5 -> 18        -0.40058
       7 -> 20         0.58126

 Excited State  49:      Singlet-AG    23.7396 eV   52.23 nm  f=0.0000  <S**2>=0.000
       4 -> 14         0.50624
       5 -> 16         0.47452

 Excited State  50:      Singlet-B1U   23.8134 eV   52.06 nm  f=0.0033  <S**2>=0.000
       3 -> 12         0.64293
       6 -> 19         0.10087
       8 -> 20        -0.16456

 Excited State  51:      Singlet-B3U   24.1196 eV   51.40 nm  f=0.0009  <S**2>=0.000
       8 -> 21         0.70337

 Excited State  52:      Singlet-B1G   24.4837 eV   50.64 nm  f=0.0000  <S**2>=0.000
       8 -> 23         0.70347

 Excited State  53:      Singlet-B2U   24.5103 eV   50.58 nm  f=0.0305  <S**2>=0.000
       5 -> 17        -0.40892
       7 -> 19         0.56587

 Excited State  54:      Singlet-AG    24.6362 eV   50.33 nm  f=0.0000  <S**2>=0.000
       4 -> 14        -0.47491
       5 -> 16         0.50471

 Excited State  55:      Singlet-B2U   24.6851 eV   50.23 nm  f=0.3130  <S**2>=0.000
       3 -> 11         0.13872
       5 -> 17         0.48037
       6 -> 16        -0.26962
       7 -> 19         0.31890
       7 -> 22         0.17993

 Excited State  56:      Singlet-B2G   24.7250 eV   50.15 nm  f=0.0000  <S**2>=0.000
       8 -> 22         0.70151

 Excited State  57:      Singlet-AU    24.8892 eV   49.81 nm  f=0.0000  <S**2>=0.000
       8 -> 24         0.70549

 Excited State  58:      Singlet-B1G   25.2183 eV   49.16 nm  f=0.0000  <S**2>=0.000
       5 -> 18         0.58226
       7 -> 20         0.39849

 Excited State  59:      Singlet-B1U   25.2516 eV   49.10 nm  f=0.1473  <S**2>=0.000
       4 -> 15         0.65614
       6 -> 19         0.20334
       7 -> 23        -0.12130

 Excited State  60:      Singlet-B2G   25.5263 eV   48.57 nm  f=0.0000  <S**2>=0.000
       4 -> 18        -0.18668
       6 -> 20         0.68012

 Excited State  61:      Singlet-B3G   25.7276 eV   48.19 nm  f=0.0000  <S**2>=0.000
       3 -> 13         0.69967

 Excited State  62:      Singlet-B1U   25.8918 eV   47.89 nm  f=0.2216  <S**2>=0.000
       4 -> 15        -0.19406
       6 -> 19         0.64044
       7 -> 16        -0.12117

 Excited State  63:      Singlet-B3G   26.5920 eV   46.62 nm  f=0.0000  <S**2>=0.000
       4 -> 16        -0.35017
       7 -> 21         0.60201

 Excited State  64:      Singlet-B3G   26.8056 eV   46.25 nm  f=0.0000  <S**2>=0.000
       4 -> 16         0.38004
       5 -> 19         0.55819
       7 -> 21         0.18988

 Excited State  65:      Singlet-B1U   27.2118 eV   45.56 nm  f=0.0217  <S**2>=0.000
       4 -> 17         0.60732
       6 -> 22         0.12750
       7 -> 23        -0.30097

 Excited State  66:      Singlet-AU    27.3755 eV   45.29 nm  f=0.0000  <S**2>=0.000
       5 -> 20         0.70073

 Excited State  67:      Singlet-B2U   27.4179 eV   45.22 nm  f=0.2579  <S**2>=0.000
       5 -> 17        -0.12979
       7 -> 19        -0.11094
       7 -> 22         0.67290

 Excited State  68:      Singlet-B1U   27.4650 eV   45.14 nm  f=0.0417  <S**2>=0.000
       3 -> 14         0.10264
       4 -> 15         0.13541
       4 -> 17         0.31526
       6 -> 25         0.10219
       7 -> 23         0.58589

 Excited State  69:      Singlet-B2G   27.8479 eV   44.52 nm  f=0.0000  <S**2>=0.000
       4 -> 18         0.19713
       8 -> 25         0.67429

 Excited State  70:      Singlet-B3G   27.8963 eV   44.44 nm  f=0.0000  <S**2>=0.000
       4 -> 16         0.45803
       5 -> 19        -0.39919
       6 -> 24        -0.20959
       7 -> 21         0.27300

 Excited State  71:      Singlet-AG    27.9341 eV   44.38 nm  f=0.0000  <S**2>=0.000
       6 -> 21         0.51918
       7 -> 24        -0.46175

 Excited State  72:      Singlet-B2G   28.0689 eV   44.17 nm  f=0.0000  <S**2>=0.000
       4 -> 18         0.65058
       6 -> 20         0.17251
       8 -> 25        -0.20898

 Excited State  73:      Singlet-B2U   28.6469 eV   43.28 nm  f=0.0523  <S**2>=0.000
       6 -> 23         0.68157
       7 -> 25         0.10128

 Excited State  74:      Singlet-B1U   28.8674 eV   42.95 nm  f=0.0131  <S**2>=0.000
       3 -> 14         0.48193
       5 -> 24         0.10944
       6 -> 22        -0.45737
       6 -> 25        -0.10497
       7 -> 23        -0.13732

 Excited State  75:      Singlet-B1U   29.0317 eV   42.71 nm  f=0.0770  <S**2>=0.000
       3 -> 14         0.47373
       6 -> 22         0.51197

 Excited State  76:      Singlet-AG    29.1354 eV   42.55 nm  f=0.0000  <S**2>=0.000
       3 -> 15         0.21755
       5 -> 23        -0.25511
       6 -> 21         0.41424
       7 -> 24         0.44218

 Excited State  77:      Singlet-B3G   29.1558 eV   42.52 nm  f=0.0000  <S**2>=0.000
       4 -> 16         0.11190
       5 -> 19        -0.13940
       6 -> 24         0.66494
       7 -> 21         0.11782

 Excited State  78:      Singlet-B2U   29.9349 eV   41.42 nm  f=0.1969  <S**2>=0.000
       5 -> 21         0.66002
       7 -> 25        -0.17041

 Excited State  79:      Singlet-AG    30.1682 eV   41.10 nm  f=0.0000  <S**2>=0.000
       3 -> 15         0.14758
       4 -> 19         0.65788
       5 -> 23         0.17819

 Excited State  80:      Singlet-B3G   30.4433 eV   40.73 nm  f=0.0000  <S**2>=0.000
       5 -> 22         0.69786

 Excited State  81:      Singlet-B3U   30.4492 eV   40.72 nm  f=0.1229  <S**2>=0.000
       3 -> 18        -0.11180
       4 -> 20         0.69442

 Excited State  82:      Singlet-AG    30.5025 eV   40.65 nm  f=0.0000  <S**2>=0.000
       3 -> 15         0.53716
       4 -> 19        -0.21783
       5 -> 23         0.38921

 Excited State  83:      Singlet-B2U   30.6596 eV   40.44 nm  f=0.0000  <S**2>=0.000
       3 -> 16        -0.10148
       5 -> 21         0.19648
       7 -> 25         0.66164

 Excited State  84:      Singlet-B1U   30.9674 eV   40.04 nm  f=0.1140  <S**2>=0.000
       4 -> 21        -0.11647
       5 -> 24         0.63796
       6 -> 25         0.25325

 Excited State  85:      Singlet-AG    31.6386 eV   39.19 nm  f=0.0000  <S**2>=0.000
       3 -> 15        -0.32523
       3 -> 17        -0.29287
       4 -> 22        -0.30812
       5 -> 23         0.37615
       6 -> 21         0.17304
       7 -> 24         0.12771

 Excited State  86:      Singlet-B2U   31.8344 eV   38.95 nm  f=0.0556  <S**2>=0.000
       3 -> 16         0.69313
       7 -> 25         0.10722

 Excited State  87:      Singlet-AG    32.2417 eV   38.45 nm  f=0.0000  <S**2>=0.000
       3 -> 17         0.62847
       4 -> 22        -0.19732
       5 -> 23         0.17477

 Excited State  88:      Singlet-B3U   32.8429 eV   37.75 nm  f=0.0582  <S**2>=0.000
       3 -> 18         0.69687
       4 -> 20         0.11062

 Excited State  89:      Singlet-B1U   32.9014 eV   37.68 nm  f=0.1443  <S**2>=0.000
       4 -> 21         0.59770
       6 -> 25         0.36061

 Excited State  90:      Singlet-B3G   33.3142 eV   37.22 nm  f=0.0000  <S**2>=0.000
       4 -> 23         0.69433

 Excited State  91:      Singlet-B3G   33.6445 eV   36.85 nm  f=0.0000  <S**2>=0.000
       5 -> 25         0.69860

 Excited State  92:      Singlet-B2U   33.9048 eV   36.57 nm  f=0.1570  <S**2>=0.000
       4 -> 24         0.69956

 Excited State  93:      Singlet-AU    34.5972 eV   35.84 nm  f=0.0000  <S**2>=0.000
       8 -> 26         0.70653

 Excited State  94:      Singlet-B1U   34.6607 eV   35.77 nm  f=0.0001  <S**2>=0.000
       3 -> 19         0.61776
       4 -> 21         0.18327
       5 -> 24         0.10798
       6 -> 25        -0.23782

 Excited State  95:      Singlet-AG    35.0478 eV   35.38 nm  f=0.0000  <S**2>=0.000
       3 -> 15        -0.12814
       3 -> 21        -0.13913
       4 -> 22         0.57818
       4 -> 25         0.14698
       5 -> 23         0.22597
       7 -> 24         0.13548
       8 -> 18        -0.10395

 Excited State  96:      Singlet-B2G   35.3142 eV   35.11 nm  f=0.0000  <S**2>=0.000
       3 -> 20         0.70358

 Excited State  97:      Singlet-B1U   35.7533 eV   34.68 nm  f=0.0182  <S**2>=0.000
       3 -> 19         0.32816
       3 -> 22         0.25516
       3 -> 25         0.12589
       4 -> 21        -0.27955
       5 -> 24        -0.20405
       6 -> 25         0.39813
       8 -> 20        -0.10677

 Excited State  98:      Singlet-AG    36.7691 eV   33.72 nm  f=0.0000  <S**2>=0.000
       4 -> 22        -0.11957
       4 -> 25         0.64326
       7 -> 26         0.24908

 Excited State  99:      Singlet-AG    37.5808 eV   32.99 nm  f=0.0000  <S**2>=0.000
       3 -> 21        -0.11159
       4 -> 25        -0.23502
       7 -> 26         0.64520
       8 -> 29         0.11787

 Excited State 100:      Singlet-AG    38.0253 eV   32.61 nm  f=0.0000  <S**2>=0.000
       3 -> 21         0.67336
       7 -> 26         0.10438

 Excited State 101:      Singlet-B2U   38.1301 eV   32.52 nm  f=0.2533  <S**2>=0.000
       3 -> 23         0.68080
       8 -> 27         0.17304

 Excited State 102:      Singlet-B3G   38.5521 eV   32.16 nm  f=0.0000  <S**2>=0.000
       3 -> 24         0.69064
       8 -> 28         0.10770

 Excited State 103:      Singlet-B2U   38.8864 eV   31.88 nm  f=0.7497  <S**2>=0.000
       3 -> 23        -0.17398
       8 -> 27         0.67433

 Excited State 104:      Singlet-B1U   38.9701 eV   31.82 nm  f=0.0071  <S**2>=0.000
       3 -> 22         0.63540
       3 -> 25        -0.20158
       6 -> 25        -0.16936

 Excited State 105:      Singlet-B3G   38.9822 eV   31.81 nm  f=0.0000  <S**2>=0.000
       3 -> 24        -0.10499
       6 -> 26         0.66558
       8 -> 28         0.21153

 Excited State 106:      Singlet-B3G   40.2509 eV   30.80 nm  f=0.0000  <S**2>=0.000
       6 -> 26        -0.22075
       8 -> 28         0.66177

 Excited State 107:      Singlet-B1U   40.4526 eV   30.65 nm  f=0.0770  <S**2>=0.000
       5 -> 26         0.70278

 Excited State 108:      Singlet-B2G   40.8313 eV   30.36 nm  f=0.0000  <S**2>=0.000
       7 -> 27         0.70322

 Excited State 109:      Singlet-AG    41.5990 eV   29.80 nm  f=0.0000  <S**2>=0.000
       8 -> 29         0.68474

 Excited State 110:      Singlet-B1G   41.7211 eV   29.72 nm  f=0.0000  <S**2>=0.000
       6 -> 27         0.70378

 Excited State 111:      Singlet-B3U   42.5078 eV   29.17 nm  f=0.4416  <S**2>=0.000
       6 -> 29        -0.24151
       7 -> 28         0.65806

 Excited State 112:      Singlet-AU    42.7192 eV   29.02 nm  f=0.0000  <S**2>=0.000
       7 -> 29         0.70287

 Excited State 113:      Singlet-B1U   42.9478 eV   28.87 nm  f=0.1279  <S**2>=0.000
       3 -> 22         0.13889
       3 -> 25         0.66046
       6 -> 25        -0.12724

 Excited State 114:      Singlet-B2U   43.5617 eV   28.46 nm  f=0.0022  <S**2>=0.000
       4 -> 26         0.70610

 Excited State 115:      Singlet-AU    43.5683 eV   28.46 nm  f=0.0000  <S**2>=0.000
       4 -> 27         0.10643
       6 -> 28         0.69478

 Excited State 116:      Singlet-B3U   43.6882 eV   28.38 nm  f=0.0475  <S**2>=0.000
       5 -> 27         0.61888
       6 -> 29        -0.28591
       7 -> 28        -0.18518

 Excited State 117:      Singlet-B2G   45.6200 eV   27.18 nm  f=0.0000  <S**2>=0.000
       4 -> 29        -0.10016
       5 -> 28         0.69820

 Excited State 118:      Singlet-B1G   45.7410 eV   27.11 nm  f=0.0000  <S**2>=0.000
       5 -> 29         0.70514

 Excited State 119:      Singlet-B3U   46.1466 eV   26.87 nm  f=1.5215  <S**2>=0.000
       5 -> 27         0.31711
       6 -> 29         0.58446
       7 -> 28         0.16593
       8 -> 32         0.11345
       8 -> 36        -0.11890

 Excited State 120:      Singlet-AU    46.7416 eV   26.53 nm  f=0.0000  <S**2>=0.000
       4 -> 27         0.69656
       6 -> 28        -0.10735

 Excited State 121:      Singlet-B3G   48.1587 eV   25.74 nm  f=0.0000  <S**2>=0.000
       3 -> 26         0.70608

 Excited State 122:      Singlet-B1G   48.5634 eV   25.53 nm  f=0.0000  <S**2>=0.000
       4 -> 28         0.70048

 Excited State 123:      Singlet-AU    49.0432 eV   25.28 nm  f=0.0000  <S**2>=0.000
       8 -> 30         0.70539

 Excited State 124:      Singlet-B2G   49.4737 eV   25.06 nm  f=0.0000  <S**2>=0.000
       4 -> 29         0.69640

 Excited State 125:      Singlet-B1G   50.2207 eV   24.69 nm  f=0.0000  <S**2>=0.000
       8 -> 31         0.70087

 Excited State 126:      Singlet-B3U   50.5879 eV   24.51 nm  f=0.2032  <S**2>=0.000
       8 -> 32         0.69161

 Excited State 127:      Singlet-B1G   51.5050 eV   24.07 nm  f=0.0000  <S**2>=0.000
       3 -> 27         0.70210

 Excited State 128:      Singlet-AG    51.5943 eV   24.03 nm  f=0.0000  <S**2>=0.000
       7 -> 30         0.69845

 Excited State 129:      Singlet-B1U   52.5206 eV   23.61 nm  f=0.0099  <S**2>=0.000
       8 -> 33         0.70454

 Excited State 130:      Singlet-B1U   52.7455 eV   23.51 nm  f=0.1910  <S**2>=0.000
       5 -> 30         0.19947
       7 -> 31         0.67549

 Excited State 131:      Singlet-B3G   53.0518 eV   23.37 nm  f=0.0000  <S**2>=0.000
       6 -> 30        -0.43109
       7 -> 32         0.55451

 Excited State 132:      Singlet-B3G   53.1557 eV   23.32 nm  f=0.0000  <S**2>=0.000
       6 -> 30         0.55504
       7 -> 32         0.43309

 Excited State 133:      Singlet-AU    53.1691 eV   23.32 nm  f=0.0000  <S**2>=0.000
       3 -> 28         0.70490

 Excited State 134:      Singlet-B2G   53.6419 eV   23.11 nm  f=0.0000  <S**2>=0.000
       8 -> 34         0.70439

 Excited State 135:      Singlet-B1G   53.7886 eV   23.05 nm  f=0.0000  <S**2>=0.000
       8 -> 35         0.70379

 Excited State 136:      Singlet-B3U   54.0831 eV   22.92 nm  f=0.0097  <S**2>=0.000
       3 -> 29         0.68328
       8 -> 36         0.17181

 Excited State 137:      Singlet-AG    54.3130 eV   22.83 nm  f=0.0000  <S**2>=0.000
       6 -> 32         0.69437

 Excited State 138:      Singlet-B2U   54.3881 eV   22.80 nm  f=0.0017  <S**2>=0.000
       4 -> 30         0.12990
       6 -> 31         0.68249

 Excited State 139:      Singlet-B1U   54.8516 eV   22.60 nm  f=0.0430  <S**2>=0.000
       5 -> 30         0.67259
       7 -> 31        -0.20119

 Excited State 140:      Singlet-B1G   54.8596 eV   22.60 nm  f=0.0000  <S**2>=0.000
       7 -> 33         0.70151

 Excited State 141:      Singlet-B2U   55.9121 eV   22.17 nm  f=0.0689  <S**2>=0.000
       5 -> 32        -0.38577
       6 -> 31        -0.11138
       6 -> 35        -0.16497
       7 -> 34         0.54970

 Excited State 142:      Singlet-AG    55.9446 eV   22.16 nm  f=0.0000  <S**2>=0.000
       5 -> 31         0.68993

 Excited State 143:      Singlet-B3U   55.9683 eV   22.15 nm  f=0.5140  <S**2>=0.000
       3 -> 29        -0.16352
       8 -> 36         0.66324

 The electronic state is 1-AG.
 Alpha  occ. eigenvalues --  -10.30032 -10.29955  -0.85076  -0.66352  -0.55451
 Alpha  occ. eigenvalues --   -0.50465  -0.43480  -0.35665
 Alpha virt. eigenvalues --    0.08355   0.16700   0.18518   0.19965   0.27250
 Alpha virt. eigenvalues --    0.40806   0.47854   0.51911   0.52795   0.57760
 Alpha virt. eigenvalues --    0.63744   0.66984   0.73615   0.75757   0.76619

 Mulliken charges:
               1
     1  C   -0.112518
     2  C   -0.112518
     3  H    0.056259
     4  H    0.056259
     5  H    0.056259
     6  H    0.056259
 Sum of Mulliken charges =   0.00000

 Dipole moment (field-independent basis, Debye):
    X=             -0.0000    Y=             -0.0000    Z=              0.0000  Tot=              0.0000
 Quadrupole moment (field-independent basis, Debye-Ang):
   XX=            -15.1839   YY=            -12.1941   ZZ=            -12.1327
   XY=              0.0000   XZ=             -0.0000   YZ=             -0.0000

 Normal termination of Gaussian 16 at Sat Aug 14 23:27:23 2021.
