 Gaussian 16, Revision C.01,
 Gaussian 16:  EM64L-G16RevC.01  3-Jul-2019

 ----------------------------------------------------------------------
 #P TD(Nstates=10000) wB97XD/def2SVP SCF(maxcycles=100) Int(Grid=ultraf
 ine)
 ----------------------------------------------------------------------

 ---------------------
 xGDB7_00001_tier4.com
 ---------------------
 Symbolic Z-matrix:
 Charge =  0 Multiplicity = 1

                         Standard orientation:
 ---------------------------------------------------------------------
 Center     Atomic      Atomic             Coordinates (Angstroms)
 Number     Number       Type             X           Y           Z
 ---------------------------------------------------------------------
      1          6           0       -0.050263    0.696897    0.000000
      2          7           0       -0.050263   -0.753988   -0.000000
      3          1           0        0.948194    1.180822    0.000000
      4          1           0       -0.593517    1.068540    0.882628
      5          1           0       -0.593517    1.068540   -0.882628
      6          1           0        0.446130   -1.110683    0.813463
      7          1           0        0.446130   -1.110683   -0.813463
 ---------------------------------------------------------------------

 SCF Done:  E(RwB97XD) =  -95.7549193428     A.U. after   13 cycles

 Excitation energies and oscillator strengths:

 Excited State   1:      Singlet-A'     7.0325 eV  176.30 nm  f=0.0037  <S**2>=0.000
       9 -> 10         0.68983
       9 -> 11        -0.14555
 This state for optimization and/or second-order correction.
 Total Energy, E(TD-HF/TD-DFT) =  -95.4964793555
 Copying the excited state density for this state as the 1-particle RhoCI density.

 Excited State   2:      Singlet-A"     8.6239 eV  143.77 nm  f=0.0223  <S**2>=0.000
       9 -> 12         0.68493
       9 -> 14        -0.16522

 Excited State   3:      Singlet-A'     8.7350 eV  141.94 nm  f=0.0496  <S**2>=0.000
       9 -> 10         0.14543
       9 -> 11         0.68868

 Excited State   4:      Singlet-A'     9.8574 eV  125.78 nm  f=0.1632  <S**2>=0.000
       9 -> 13         0.70145

 Excited State   5:      Singlet-A"     9.9724 eV  124.33 nm  f=0.0009  <S**2>=0.000
       9 -> 12         0.16720
       9 -> 14         0.68391

 Excited State   6:      Singlet-A"    10.8470 eV  114.30 nm  f=0.0064  <S**2>=0.000
       8 -> 10         0.69892

 Excited State   7:      Singlet-A'    11.3794 eV  108.95 nm  f=0.0221  <S**2>=0.000
       7 -> 10         0.11816
       9 -> 15         0.69069

 Excited State   8:      Singlet-A'    11.9942 eV  103.37 nm  f=0.0722  <S**2>=0.000
       7 -> 10         0.68906
       9 -> 15        -0.11261

 Excited State   9:      Singlet-A"    12.1160 eV  102.33 nm  f=0.2700  <S**2>=0.000
       5 -> 10        -0.10004
       8 -> 11         0.69367

 Excited State  10:      Singlet-A'    12.7132 eV   97.52 nm  f=0.2875  <S**2>=0.000
       8 -> 12         0.69428

 Excited State  11:      Singlet-A"    12.8498 eV   96.49 nm  f=0.0351  <S**2>=0.000
       7 -> 12        -0.10833
       8 -> 13         0.69009

 Excited State  12:      Singlet-A'    12.9576 eV   95.68 nm  f=0.2898  <S**2>=0.000
       6 -> 10         0.56877
       7 -> 11         0.40232

 Excited State  13:      Singlet-A'    13.3062 eV   93.18 nm  f=0.0542  <S**2>=0.000
       6 -> 10        -0.39047
       7 -> 11         0.57232

 Excited State  14:      Singlet-A"    13.5071 eV   91.79 nm  f=0.1119  <S**2>=0.000
       7 -> 12         0.67147
       8 -> 13         0.10262
       8 -> 15        -0.11622

 Excited State  15:      Singlet-A'    13.8555 eV   89.48 nm  f=0.0410  <S**2>=0.000
       6 -> 11         0.12349
       7 -> 13        -0.33676
       8 -> 14         0.59008

 Excited State  16:      Singlet-A"    14.1990 eV   87.32 nm  f=0.2397  <S**2>=0.000
       5 -> 10         0.63135
       5 -> 11        -0.13624
       7 -> 12        -0.12853
       7 -> 14         0.17378
       8 -> 15        -0.15019

 Excited State  17:      Singlet-A'    14.2333 eV   87.11 nm  f=0.0832  <S**2>=0.000
       6 -> 11         0.60837
       6 -> 13        -0.12060
       7 -> 13         0.32491

 Excited State  18:      Singlet-A"    14.3335 eV   86.50 nm  f=0.0039  <S**2>=0.000
       6 -> 12         0.53493
       7 -> 14         0.44363

 Excited State  19:      Singlet-A'    14.4149 eV   86.01 nm  f=0.1154  <S**2>=0.000
       6 -> 11        -0.32398
       6 -> 13        -0.20393
       7 -> 13         0.47960
       8 -> 14         0.31730

 Excited State  20:      Singlet-A"    14.7055 eV   84.31 nm  f=0.0615  <S**2>=0.000
       5 -> 10        -0.20347
       6 -> 12        -0.41370
       6 -> 14        -0.13622
       7 -> 14         0.46618
       8 -> 15        -0.19411

 Excited State  21:      Singlet-A'    15.1533 eV   81.82 nm  f=0.1320  <S**2>=0.000
       5 -> 12         0.20127
       6 -> 13         0.62596
       7 -> 13         0.13975
       8 -> 14         0.15796

 Excited State  22:      Singlet-A"    15.1652 eV   81.76 nm  f=0.0546  <S**2>=0.000
       5 -> 10         0.12203
       6 -> 12        -0.16743
       6 -> 14        -0.15867
       7 -> 14         0.13730
       8 -> 15         0.62595

 Excited State  23:      Singlet-A"    15.6387 eV   79.28 nm  f=0.1012  <S**2>=0.000
       6 -> 14         0.66772
       7 -> 14         0.15052
       8 -> 15         0.10344

 Excited State  24:      Singlet-A"    15.8163 eV   78.39 nm  f=0.0002  <S**2>=0.000
       5 -> 10         0.12093
       5 -> 11         0.68487

 Excited State  25:      Singlet-A'    16.1705 eV   76.67 nm  f=0.0914  <S**2>=0.000
       5 -> 12        -0.35025
       5 -> 14         0.19532
       7 -> 15         0.55863

 Excited State  26:      Singlet-A'    16.4224 eV   75.50 nm  f=0.0743  <S**2>=0.000
       5 -> 12         0.52736
       6 -> 13        -0.17079
       6 -> 15         0.19310
       7 -> 15         0.33798

 Excited State  27:      Singlet-A"    16.6879 eV   74.30 nm  f=0.0486  <S**2>=0.000
       5 -> 13         0.69025

 Excited State  28:      Singlet-A'    17.1502 eV   72.29 nm  f=0.1616  <S**2>=0.000
       5 -> 12         0.16619
       5 -> 14         0.58343
       6 -> 15        -0.33580

 Excited State  29:      Singlet-A"    17.2878 eV   71.72 nm  f=0.0705  <S**2>=0.000
       9 -> 16         0.69189

 Excited State  30:      Singlet-A'    17.6927 eV   70.08 nm  f=0.0214  <S**2>=0.000
       5 -> 14        -0.14807
       6 -> 15        -0.15669
       7 -> 15         0.10901
       9 -> 17         0.64845

 Excited State  31:      Singlet-A'    17.8707 eV   69.38 nm  f=0.0670  <S**2>=0.000
       4 -> 10        -0.13679
       5 -> 14         0.22722
       6 -> 15         0.46888
       9 -> 17         0.20026
       9 -> 18         0.37487

 Excited State  32:      Singlet-A"    18.4149 eV   67.33 nm  f=0.0069  <S**2>=0.000
       5 -> 15         0.69789

 Excited State  33:      Singlet-A'    19.0096 eV   65.22 nm  f=0.1313  <S**2>=0.000
       4 -> 10         0.47400
       6 -> 15        -0.12452
       9 -> 18         0.47041

 Excited State  34:      Singlet-A'    19.6969 eV   62.95 nm  f=0.2022  <S**2>=0.000
       4 -> 10         0.48811
       5 -> 14         0.15255
       6 -> 15         0.21596
       7 -> 15        -0.14137
       8 -> 16         0.10084
       9 -> 18        -0.32368

 Excited State  35:      Singlet-A'    20.5293 eV   60.39 nm  f=0.0202  <S**2>=0.000
       4 -> 11         0.67724
       8 -> 16         0.11614

 Excited State  36:      Singlet-A"    20.5968 eV   60.20 nm  f=0.0001  <S**2>=0.000
       4 -> 12         0.67275
       8 -> 17        -0.18159

 Excited State  37:      Singlet-A"    21.0951 eV   58.77 nm  f=0.0007  <S**2>=0.000
       4 -> 12         0.18900
       8 -> 17         0.64375
       8 -> 18         0.13261
       9 -> 19        -0.10989

 Excited State  38:      Singlet-A'    21.1164 eV   58.71 nm  f=0.0191  <S**2>=0.000
       4 -> 13         0.65531
       7 -> 17        -0.10318
       8 -> 16         0.20521

 Excited State  39:      Singlet-A"    21.2961 eV   58.22 nm  f=0.0175  <S**2>=0.000
       7 -> 16         0.28333
       8 -> 17         0.13406
       8 -> 18        -0.19475
       9 -> 19         0.59368

 Excited State  40:      Singlet-A'    21.6279 eV   57.33 nm  f=0.1587  <S**2>=0.000
       4 -> 13        -0.23916
       7 -> 17        -0.27167
       7 -> 18        -0.12991
       8 -> 16         0.55457

 Excited State  41:      Singlet-A"    21.6932 eV   57.15 nm  f=0.0045  <S**2>=0.000
       4 -> 14        -0.36529
       7 -> 16        -0.31978
       8 -> 18         0.40919
       9 -> 19         0.28629

 Excited State  42:      Singlet-A"    21.8287 eV   56.80 nm  f=0.0278  <S**2>=0.000
       4 -> 14         0.58120
       7 -> 16        -0.12114
       8 -> 18         0.31556
       9 -> 19         0.17120

 Excited State  43:      Singlet-A'    22.1554 eV   55.96 nm  f=0.0454  <S**2>=0.000
       6 -> 17         0.14525
       7 -> 17         0.22281
       8 -> 16         0.17687
       9 -> 20         0.60599

 Excited State  44:      Singlet-A'    22.5799 eV   54.91 nm  f=0.1236  <S**2>=0.000
       4 -> 15        -0.11982
       6 -> 17         0.23905
       6 -> 18         0.12308
       7 -> 17         0.51268
       8 -> 16         0.15355
       9 -> 20        -0.27577
       9 -> 21        -0.12347

 Excited State  45:      Singlet-A"    22.6777 eV   54.67 nm  f=0.2153  <S**2>=0.000
       6 -> 16         0.27151
       7 -> 16         0.48604
       8 -> 18         0.38061

 Excited State  46:      Singlet-A"    22.8738 eV   54.20 nm  f=0.0163  <S**2>=0.000
       6 -> 16         0.64018
       7 -> 16        -0.20771
       8 -> 18        -0.12160

 Excited State  47:      Singlet-A'    22.8740 eV   54.20 nm  f=0.0067  <S**2>=0.000
       6 -> 17         0.27755
       7 -> 17        -0.11998
       7 -> 18         0.61596

 Excited State  48:      Singlet-A'    23.4429 eV   52.89 nm  f=0.0781  <S**2>=0.000
       4 -> 15         0.62542
       6 -> 17         0.12757
       6 -> 18         0.21091
       9 -> 21         0.10265

 Excited State  49:      Singlet-A'    23.6173 eV   52.50 nm  f=0.0361  <S**2>=0.000
       9 -> 21         0.64926
       9 -> 22         0.21778

 Excited State  50:      Singlet-A'    23.8051 eV   52.08 nm  f=0.0499  <S**2>=0.000
       3 -> 10        -0.11977
       4 -> 15         0.18075
       6 -> 17        -0.12204
       6 -> 18        -0.30477
       9 -> 21        -0.15708
       9 -> 22         0.52027

 Excited State  51:      Singlet-A"    23.9804 eV   51.70 nm  f=0.0023  <S**2>=0.000
       9 -> 23         0.68960

 Excited State  52:      Singlet-A'    24.1561 eV   51.33 nm  f=0.2399  <S**2>=0.000
       3 -> 10         0.10260
       5 -> 16         0.16304
       6 -> 17         0.45505
       7 -> 17        -0.18035
       7 -> 18        -0.19560
       8 -> 16        -0.16635
       8 -> 19         0.15525
       8 -> 23        -0.12359
       9 -> 22         0.26017

 Excited State  53:      Singlet-A'    24.5116 eV   50.58 nm  f=0.0989  <S**2>=0.000
       3 -> 10        -0.13131
       4 -> 15        -0.10274
       5 -> 16        -0.15394
       6 -> 17        -0.14809
       6 -> 18         0.54060
       7 -> 18         0.11038
       9 -> 22         0.21524
       9 -> 24        -0.13401

 Excited State  54:      Singlet-A'    24.7534 eV   50.09 nm  f=0.1252  <S**2>=0.000
       5 -> 16         0.63965
       6 -> 17        -0.14060
       6 -> 18         0.10771

 Excited State  55:      Singlet-A"    24.9055 eV   49.78 nm  f=0.0929  <S**2>=0.000
       5 -> 17         0.65229
       5 -> 18         0.13334

 Excited State  56:      Singlet-A'    24.9529 eV   49.69 nm  f=0.0627  <S**2>=0.000
       3 -> 10         0.63720
       6 -> 17        -0.11620
       9 -> 22         0.10476
       9 -> 24         0.10941
       9 -> 25        -0.14042

 Excited State  57:      Singlet-A"    25.4578 eV   48.70 nm  f=0.0106  <S**2>=0.000
       5 -> 17        -0.14563
       5 -> 18         0.67686

 Excited State  58:      Singlet-A'    25.5023 eV   48.62 nm  f=0.0725  <S**2>=0.000
       7 -> 22         0.11591
       8 -> 19         0.60533
       9 -> 22        -0.12104
       9 -> 24        -0.20125

 Excited State  59:      Singlet-A'    25.7396 eV   48.17 nm  f=0.0901  <S**2>=0.000
       3 -> 10        -0.11400
       7 -> 21         0.11789
       8 -> 19         0.20936
       9 -> 24         0.60244
       9 -> 25         0.14338

 Excited State  60:      Singlet-A"    25.9314 eV   47.81 nm  f=0.0018  <S**2>=0.000
       7 -> 19         0.65015
       8 -> 20         0.22136

 Excited State  61:      Singlet-A"    26.0904 eV   47.52 nm  f=0.0009  <S**2>=0.000
       3 -> 12        -0.11355
       7 -> 19        -0.22514
       8 -> 20         0.57953
       8 -> 22         0.24493

 Excited State  62:      Singlet-A'    26.3999 eV   46.96 nm  f=0.0009  <S**2>=0.000
       3 -> 11         0.64826
       9 -> 25         0.21397

 Excited State  63:      Singlet-A"    26.5061 eV   46.78 nm  f=0.0134  <S**2>=0.000
       3 -> 12         0.63967
       3 -> 14        -0.10756
       6 -> 19         0.16799
       8 -> 22         0.16744

 Excited State  64:      Singlet-A"    26.6957 eV   46.44 nm  f=0.0331  <S**2>=0.000
       6 -> 19        -0.13828
       8 -> 21         0.57187
       8 -> 22         0.33014
       8 -> 24         0.10749

 Excited State  65:      Singlet-A'    27.0492 eV   45.84 nm  f=0.0249  <S**2>=0.000
       6 -> 20        -0.10993
       7 -> 20         0.64725
       9 -> 25        -0.13958

 Excited State  66:      Singlet-A"    27.0678 eV   45.81 nm  f=0.0108  <S**2>=0.000
       3 -> 12        -0.18189
       6 -> 19         0.40271
       7 -> 23        -0.14948
       8 -> 20        -0.10081
       8 -> 21        -0.10746
       8 -> 22         0.31763
       9 -> 26         0.36885

 Excited State  67:      Singlet-A'    27.1981 eV   45.59 nm  f=0.0047  <S**2>=0.000
       3 -> 13         0.61795
       7 -> 21        -0.17711
       8 -> 23         0.21245
       9 -> 25        -0.13277

 Excited State  68:      Singlet-A"    27.2774 eV   45.45 nm  f=0.0229  <S**2>=0.000
       3 -> 14        -0.11710
       6 -> 19        -0.17911
       8 -> 20         0.13020
       8 -> 21         0.14046
       8 -> 22        -0.26032
       9 -> 26         0.57174

 Excited State  69:      Singlet-A"    27.4425 eV   45.18 nm  f=0.2365  <S**2>=0.000
       3 -> 14        -0.22237
       6 -> 19         0.41865
       6 -> 23        -0.11091
       8 -> 20         0.22518
       8 -> 21         0.25527
       8 -> 22        -0.30553
       9 -> 26        -0.14765

 Excited State  70:      Singlet-A'    27.5183 eV   45.06 nm  f=0.0324  <S**2>=0.000
       3 -> 11        -0.15826
       3 -> 13         0.21470
       3 -> 15        -0.10816
       7 -> 20         0.14226
       8 -> 23        -0.16786
       8 -> 26        -0.10955
       9 -> 25         0.45874
       9 -> 27        -0.27663

 Excited State  71:      Singlet-A'    27.6839 eV   44.79 nm  f=0.0597  <S**2>=0.000
       3 -> 13         0.24783
       7 -> 21         0.40626
       7 -> 22         0.25955
       8 -> 19        -0.10361
       8 -> 23        -0.37820
       9 -> 25        -0.13644

 Excited State  72:      Singlet-A"    27.6974 eV   44.76 nm  f=0.0158  <S**2>=0.000
       3 -> 12         0.12419
       3 -> 14         0.63913
       6 -> 19         0.10143
       8 -> 21         0.16069
       8 -> 22        -0.12631

 Excited State  73:      Singlet-A'    27.8734 eV   44.48 nm  f=0.0586  <S**2>=0.000
       3 -> 15         0.10857
       5 -> 19        -0.18808
       6 -> 20         0.45719
       7 -> 21        -0.36271
       7 -> 22         0.22083
       8 -> 23        -0.15014
       9 -> 24         0.10481

 Excited State  74:      Singlet-A'    28.1617 eV   44.03 nm  f=0.0350  <S**2>=0.000
       3 -> 15        -0.13610
       5 -> 19        -0.12609
       6 -> 20         0.17214
       7 -> 20         0.10491
       7 -> 21         0.12379
       7 -> 22        -0.31167
       9 -> 25         0.15451
       9 -> 27         0.49594

 Excited State  75:      Singlet-A'    28.2813 eV   43.84 nm  f=0.0064  <S**2>=0.000
       5 -> 19        -0.11930
       6 -> 20        -0.35152
       7 -> 20        -0.10266
       7 -> 21        -0.16241
       7 -> 22         0.39471
       9 -> 25         0.14872
       9 -> 27         0.33270

 Excited State  76:      Singlet-A"    28.4623 eV   43.56 nm  f=0.0195  <S**2>=0.000
       6 -> 19         0.12075
       7 -> 23         0.59444
       8 -> 24         0.31352

 Excited State  77:      Singlet-A'    28.7460 eV   43.13 nm  f=0.1310  <S**2>=0.000
       3 -> 15         0.12793
       4 -> 17         0.10574
       5 -> 19        -0.22455
       6 -> 21         0.55211
       7 -> 21         0.13910
       8 -> 23         0.22868

 Excited State  78:      Singlet-A'    28.9319 eV   42.85 nm  f=0.1436  <S**2>=0.000
       4 -> 17         0.16572
       4 -> 18         0.11573
       5 -> 19         0.53019
       6 -> 20         0.10866
       6 -> 21         0.16585
       6 -> 22        -0.23849
       7 -> 24         0.11183
       9 -> 27         0.14449

 Excited State  79:      Singlet-A"    28.9964 eV   42.76 nm  f=0.0231  <S**2>=0.000
       4 -> 16         0.52712
       5 -> 20        -0.25125
       6 -> 23         0.19566
       7 -> 23         0.16656
       8 -> 24        -0.28407

 Excited State  80:      Singlet-A'    29.0068 eV   42.74 nm  f=0.1207  <S**2>=0.000
       4 -> 17        -0.18179
       5 -> 19         0.17906
       6 -> 20        -0.13885
       6 -> 21         0.29640
       6 -> 22         0.38163
       7 -> 21        -0.19586
       7 -> 24        -0.14565
       8 -> 23        -0.26511

 Excited State  81:      Singlet-A"    29.4075 eV   42.16 nm  f=0.0232  <S**2>=0.000
       4 -> 16        -0.11885
       5 -> 20        -0.21709
       6 -> 23         0.55673
       8 -> 24         0.31660

 Excited State  82:      Singlet-A'    29.4266 eV   42.13 nm  f=0.0154  <S**2>=0.000
       3 -> 15         0.57854
       4 -> 17        -0.26612
       6 -> 21        -0.11643
       6 -> 24        -0.10678
       7 -> 24         0.15187

 Excited State  83:      Singlet-A'    29.4648 eV   42.08 nm  f=0.2332  <S**2>=0.000
       3 -> 15         0.18694
       4 -> 17         0.51836
       6 -> 21        -0.18293
       6 -> 22         0.35851
       6 -> 24        -0.10469

 Excited State  84:      Singlet-A"    29.5434 eV   41.97 nm  f=0.0156  <S**2>=0.000
       4 -> 16         0.40316
       6 -> 23        -0.16418
       7 -> 23        -0.20159
       8 -> 21        -0.10378
       8 -> 24         0.41033
       8 -> 25        -0.20485

 Excited State  85:      Singlet-A'    29.9746 eV   41.36 nm  f=0.0360  <S**2>=0.000
       3 -> 15         0.11019
       4 -> 18         0.54235
       7 -> 24        -0.41043

 Excited State  86:      Singlet-A"    30.0555 eV   41.25 nm  f=0.3563  <S**2>=0.000
       5 -> 20         0.56324
       6 -> 19         0.13328
       6 -> 23         0.29190
       8 -> 25        -0.12355

 Excited State  87:      Singlet-A'    30.5157 eV   40.63 nm  f=0.0042  <S**2>=0.000
       3 -> 15        -0.10740
       4 -> 17        -0.15856
       4 -> 18         0.36922
       5 -> 23         0.12773
       6 -> 22         0.15864
       7 -> 24         0.48501

 Excited State  88:      Singlet-A"    30.6063 eV   40.51 nm  f=0.0017  <S**2>=0.000
       5 -> 20        -0.13011
       5 -> 21         0.52165
       8 -> 25        -0.42734

 Excited State  89:      Singlet-A"    30.7413 eV   40.33 nm  f=0.0492  <S**2>=0.000
       5 -> 21         0.16853
       5 -> 22         0.60645
       8 -> 24         0.11436
       8 -> 25         0.23070

 Excited State  90:      Singlet-A'    30.9381 eV   40.07 nm  f=0.0603  <S**2>=0.000
       4 -> 17        -0.13482
       4 -> 18        -0.13757
       5 -> 19         0.14260
       5 -> 23         0.39726
       6 -> 20         0.12380
       6 -> 22         0.10941
       6 -> 24        -0.38893
       7 -> 22         0.12950
       8 -> 23         0.16779

 Excited State  91:      Singlet-A"    31.0431 eV   39.94 nm  f=0.0217  <S**2>=0.000
       4 -> 16         0.12892
       5 -> 21         0.41569
       5 -> 22        -0.31123
       8 -> 25         0.40753

 Excited State  92:      Singlet-A'    31.1599 eV   39.79 nm  f=0.0076  <S**2>=0.000
       5 -> 23         0.12571
       6 -> 22         0.18188
       6 -> 24         0.45473
       6 -> 25        -0.10317
       7 -> 25         0.35039
       8 -> 23         0.10718
       8 -> 26        -0.11662

 Excited State  93:      Singlet-A'    31.6375 eV   39.19 nm  f=0.1006  <S**2>=0.000
       4 -> 21        -0.11379
       6 -> 20        -0.10255
       6 -> 24        -0.16324
       6 -> 25        -0.23724
       7 -> 22        -0.10054
       7 -> 25         0.46090
       8 -> 26         0.33923

 Excited State  94:      Singlet-A'    31.9184 eV   38.84 nm  f=0.0144  <S**2>=0.000
       4 -> 17         0.10803
       4 -> 21        -0.19280
       5 -> 23         0.49124
       6 -> 20        -0.11556
       6 -> 22        -0.15509
       6 -> 24         0.10550
       7 -> 21        -0.10261
       7 -> 22        -0.14047
       8 -> 23        -0.11775
       8 -> 26        -0.22924

 Excited State  95:      Singlet-A"    32.4388 eV   38.22 nm  f=0.0003  <S**2>=0.000
       5 -> 24        -0.18385
       5 -> 27         0.11486
       6 -> 26        -0.21849
       7 -> 26         0.43022
       8 -> 27         0.44469

 Excited State  96:      Singlet-A'    32.4890 eV   38.16 nm  f=0.0910  <S**2>=0.000
       6 -> 24         0.14661
       6 -> 25         0.47107
       6 -> 27         0.18782
       7 -> 27        -0.18978
       8 -> 26         0.39018

 Excited State  97:      Singlet-A"    32.5030 eV   38.15 nm  f=0.0148  <S**2>=0.000
       5 -> 24         0.51349
       6 -> 26        -0.13605
       7 -> 26         0.38853
       8 -> 27        -0.19793

 Excited State  98:      Singlet-A"    32.6398 eV   37.99 nm  f=0.0038  <S**2>=0.000
       5 -> 24         0.40595
       5 -> 25        -0.14662
       7 -> 26        -0.30841
       8 -> 27         0.44085

 The electronic state is 1-A'.
 Alpha  occ. eigenvalues --  -14.41570 -10.31037  -0.96007  -0.74088  -0.57043
 Alpha  occ. eigenvalues --   -0.52215  -0.48291  -0.44271  -0.31081
 Alpha virt. eigenvalues --    0.14320   0.18633   0.20239   0.22391   0.24460
 Alpha virt. eigenvalues --    0.31716   0.52667   0.55598   0.56466   0.68026
 Alpha virt. eigenvalues --    0.71962   0.74540   0.76138   0.77410   0.83353

 Mulliken charges:
               1
     1  C    0.007091
     2  N   -0.309216
     3  H    0.013226
     4  H    0.036539
     5  H    0.036539
     6  H    0.107910
     7  H    0.107910
 Sum of Mulliken charges =   0.00000

 Dipole moment (field-independent basis, Debye):
    X=              1.3420    Y=              0.2704    Z=              0.0000  Tot=              1.3690
 Quadrupole moment (field-independent basis, Debye-Ang):
   XX=            -14.5825   YY=            -13.9116   ZZ=            -12.4731
   XY=             -2.1200   XZ=             -0.0000   YZ=              0.0000

 Normal termination of Gaussian 16 at Sat Aug 14 23:29:46 2021.
