 Gaussian 16, Revision C.01,
 Gaussian 16:  EM64L-G16RevC.01  3-Jul-2019

 ----------------------------------------------------------------------
 #P TD(Nstates=10000) wB97XD/def2SVP SCF(maxcycles=100) Int(Grid=ultraf
 ine)
 ----------------------------------------------------------------------

 ---------------------
 xGDB7_00001_tier4.com
 ---------------------
 Symbolic Z-matrix:
 Charge =  0 Multiplicity = 1

                         Standard orientation:
 ---------------------------------------------------------------------
 Center     Atomic      Atomic             Coordinates (Angstroms)
 Number     Number       Type             X           Y           Z
 ---------------------------------------------------------------------
      1          6           0        0.741313   -0.391085    0.023666
      2          6           0       -0.741313   -0.391085    0.023666
      3          7           0       -0.000000    0.845504   -0.173581
      4          1           0        1.290256   -0.754997   -0.850673
      5          1           0        1.252174   -0.560923    0.978054
      6          1           0       -1.252174   -0.560924    0.978054
      7          1           0       -1.290256   -0.754999   -0.850673
      8          1           0       -0.000001    1.406334    0.676315
 ---------------------------------------------------------------------

 SCF Done:  E(RwB97XD) =  -133.780561814     A.U. after   13 cycles

 Excitation energies and oscillator strengths:

 Excited State   1:      Singlet-A      7.4826 eV  165.70 nm  f=0.0049  <S**2>=0.000
      12 -> 13         0.68837
      12 -> 16        -0.11919
 This state for optimization and/or second-order correction.
 Total Energy, E(TD-HF/TD-DFT) =  -133.505582392
 Copying the excited state density for this state as the 1-particle RhoCI density.

 Excited State   2:      Singlet-A      8.8337 eV  140.35 nm  f=0.0501  <S**2>=0.000
      12 -> 13         0.10831
      12 -> 14         0.69355

 Excited State   3:      Singlet-A      9.0559 eV  136.91 nm  f=0.0662  <S**2>=0.000
      12 -> 15         0.54094
      12 -> 17        -0.43802

 Excited State   4:      Singlet-A      9.4253 eV  131.54 nm  f=0.0349  <S**2>=0.000
      11 -> 13        -0.15775
      12 -> 13         0.10313
      12 -> 16         0.66169

 Excited State   5:      Singlet-A      9.7226 eV  127.52 nm  f=0.0000  <S**2>=0.000
      12 -> 15         0.44650
      12 -> 17         0.53301

 Excited State   6:      Singlet-A      9.9560 eV  124.53 nm  f=0.0740  <S**2>=0.000
      11 -> 13         0.68041
      12 -> 16         0.15109

 Excited State   7:      Singlet-A     10.2905 eV  120.48 nm  f=0.0003  <S**2>=0.000
      10 -> 13         0.68998

 Excited State   8:      Singlet-A     11.1268 eV  111.43 nm  f=0.0891  <S**2>=0.000
       9 -> 13         0.64253
      10 -> 14        -0.12342
      11 -> 15        -0.19694

 Excited State   9:      Singlet-A     11.1281 eV  111.41 nm  f=0.0459  <S**2>=0.000
      11 -> 14         0.69676

 Excited State  10:      Singlet-A     11.3046 eV  109.68 nm  f=0.0456  <S**2>=0.000
      12 -> 18         0.69041

 Excited State  11:      Singlet-A     11.4760 eV  108.04 nm  f=0.0216  <S**2>=0.000
       9 -> 13         0.21992
      10 -> 14         0.59102
      11 -> 15         0.27210

 Excited State  12:      Singlet-A     11.5892 eV  106.98 nm  f=0.0243  <S**2>=0.000
      10 -> 15        -0.12637
      10 -> 17         0.10652
      11 -> 16        -0.16625
      12 -> 19         0.64748

 Excited State  13:      Singlet-A     11.6255 eV  106.65 nm  f=0.2548  <S**2>=0.000
       9 -> 13         0.10774
      10 -> 14        -0.33275
      10 -> 16         0.27322
      11 -> 15         0.46915
      11 -> 17        -0.22716

 Excited State  14:      Singlet-A     11.6556 eV  106.37 nm  f=0.0416  <S**2>=0.000
      11 -> 16         0.67053
      12 -> 19         0.16204

 Excited State  15:      Singlet-A     11.9179 eV  104.03 nm  f=0.0144  <S**2>=0.000
       9 -> 14        -0.31346
      10 -> 14        -0.10015
      10 -> 16        -0.32429
      11 -> 15         0.34277
      11 -> 17         0.38186

 Excited State  16:      Singlet-A     12.1475 eV  102.07 nm  f=0.0271  <S**2>=0.000
       9 -> 15        -0.27549
       9 -> 17         0.20089
      10 -> 15         0.57974
      12 -> 19         0.16412

 Excited State  17:      Singlet-A     12.2390 eV  101.30 nm  f=0.0373  <S**2>=0.000
       9 -> 15         0.49317
       9 -> 17        -0.35631
      10 -> 15         0.34135

 Excited State  18:      Singlet-A     12.2609 eV  101.12 nm  f=0.2846  <S**2>=0.000
       9 -> 14        -0.46205
      10 -> 16         0.47265
      11 -> 15        -0.14606
      11 -> 17         0.13256

 Excited State  19:      Singlet-A     12.3429 eV  100.45 nm  f=0.0157  <S**2>=0.000
       9 -> 14         0.40106
      10 -> 16         0.25449
      11 -> 17         0.49496

 Excited State  20:      Singlet-A     12.7943 eV   96.91 nm  f=0.2751  <S**2>=0.000
      10 -> 15         0.13688
      10 -> 17         0.64656
      11 -> 19        -0.15794
      12 -> 19        -0.10775

 Excited State  21:      Singlet-A     12.9178 eV   95.98 nm  f=0.1343  <S**2>=0.000
       9 -> 16         0.67501
       9 -> 19         0.10888
      12 -> 20        -0.10278

 Excited State  22:      Singlet-A     13.0162 eV   95.25 nm  f=0.3119  <S**2>=0.000
       8 -> 13         0.12214
       9 -> 15         0.39626
       9 -> 17         0.55315

 Excited State  23:      Singlet-A     13.3218 eV   93.07 nm  f=0.0122  <S**2>=0.000
       9 -> 16         0.10086
      12 -> 20         0.68693

 Excited State  24:      Singlet-A     13.4654 eV   92.08 nm  f=0.0092  <S**2>=0.000
      11 -> 18         0.69018

 Excited State  25:      Singlet-A     13.8465 eV   89.54 nm  f=0.0814  <S**2>=0.000
       8 -> 13         0.57621
      10 -> 18        -0.37173

 Excited State  26:      Singlet-A     14.0511 eV   88.24 nm  f=0.0129  <S**2>=0.000
       8 -> 13         0.33039
      10 -> 18         0.57925
      11 -> 19        -0.14085

 Excited State  27:      Singlet-A     14.3530 eV   86.38 nm  f=0.0700  <S**2>=0.000
      10 -> 19         0.67062
      11 -> 20         0.11495

 Excited State  28:      Singlet-A     14.4149 eV   86.01 nm  f=0.0636  <S**2>=0.000
       8 -> 13         0.15941
       9 -> 18        -0.10597
      10 -> 17         0.13673
      10 -> 18         0.11076
      11 -> 16        -0.10109
      11 -> 19         0.62565

 Excited State  29:      Singlet-A     14.8778 eV   83.33 nm  f=0.0514  <S**2>=0.000
       8 -> 15         0.53308
       8 -> 17        -0.41052
       9 -> 19        -0.15142

 Excited State  30:      Singlet-A     14.9410 eV   82.98 nm  f=0.0255  <S**2>=0.000
       7 -> 13         0.17586
       8 -> 14         0.13173
       9 -> 18         0.65001

 Excited State  31:      Singlet-A     15.0096 eV   82.60 nm  f=0.3132  <S**2>=0.000
       7 -> 13        -0.17235
       8 -> 14         0.65687

 Excited State  32:      Singlet-A     15.4212 eV   80.40 nm  f=0.0432  <S**2>=0.000
       8 -> 15         0.11390
       8 -> 17        -0.12441
       9 -> 19         0.65128
      11 -> 20         0.13478

 Excited State  33:      Singlet-A     15.5305 eV   79.83 nm  f=0.2114  <S**2>=0.000
       7 -> 13         0.63490
       8 -> 14         0.11900
       8 -> 16         0.10298
       9 -> 18        -0.16149
      11 -> 19        -0.12360

 Excited State  34:      Singlet-A     15.5942 eV   79.51 nm  f=0.1925  <S**2>=0.000
       8 -> 17         0.13851
       9 -> 19        -0.14573
      11 -> 20         0.63967

 Excited State  35:      Singlet-A     15.7339 eV   78.80 nm  f=0.0615  <S**2>=0.000
       8 -> 16         0.64445
      10 -> 20         0.19000
      12 -> 21        -0.10485

 Excited State  36:      Singlet-A     15.8292 eV   78.33 nm  f=0.0210  <S**2>=0.000
       8 -> 15         0.41931
       8 -> 17         0.52720
      11 -> 20        -0.14193

 Excited State  37:      Singlet-A     16.3043 eV   76.04 nm  f=0.0523  <S**2>=0.000
       7 -> 16         0.15437
       8 -> 16         0.17622
      10 -> 20        -0.42634
      12 -> 21         0.47582

 Excited State  38:      Singlet-A     16.4003 eV   75.60 nm  f=0.0003  <S**2>=0.000
       7 -> 15         0.49214
       7 -> 17        -0.47452
      11 -> 20        -0.13015

 Excited State  39:      Singlet-A     16.4601 eV   75.32 nm  f=0.0494  <S**2>=0.000
       7 -> 14         0.67461
      10 -> 20         0.10027

 Excited State  40:      Singlet-A     16.5969 eV   74.70 nm  f=0.1964  <S**2>=0.000
      10 -> 20         0.45700
      12 -> 21         0.48292
      12 -> 22         0.11167

 Excited State  41:      Singlet-A     17.0413 eV   72.75 nm  f=0.0437  <S**2>=0.000
       7 -> 14        -0.11931
       7 -> 16         0.66285
      10 -> 20         0.10724

 Excited State  42:      Singlet-A     17.1581 eV   72.26 nm  f=0.0316  <S**2>=0.000
       6 -> 13        -0.13745
       7 -> 15         0.40714
       7 -> 17         0.44493
       8 -> 18         0.31289

 Excited State  43:      Singlet-A     17.1592 eV   72.26 nm  f=0.2659  <S**2>=0.000
       9 -> 20         0.67201

 Excited State  44:      Singlet-A     17.3416 eV   71.50 nm  f=0.0530  <S**2>=0.000
       6 -> 13        -0.15218
       7 -> 15        -0.25113
       7 -> 17        -0.23140
       8 -> 18         0.57715

 Excited State  45:      Singlet-A     18.0369 eV   68.74 nm  f=0.0003  <S**2>=0.000
       6 -> 13         0.65149
       8 -> 18         0.19581

 Excited State  46:      Singlet-A     18.1018 eV   68.49 nm  f=0.0968  <S**2>=0.000
       8 -> 19         0.60429
      12 -> 22        -0.32390

 Excited State  47:      Singlet-A     18.2342 eV   68.00 nm  f=0.0822  <S**2>=0.000
       7 -> 19        -0.10875
       8 -> 19         0.29292
      10 -> 20        -0.10203
      11 -> 21        -0.15501
      11 -> 22        -0.11098
      12 -> 22         0.55899

 Excited State  48:      Singlet-A     18.6024 eV   66.65 nm  f=0.0017  <S**2>=0.000
       6 -> 14         0.17216
      10 -> 21         0.11149
      12 -> 23         0.65719

 Excited State  49:      Singlet-A     18.6885 eV   66.34 nm  f=0.0004  <S**2>=0.000
       6 -> 13         0.12087
       6 -> 14         0.33628
       7 -> 18         0.53658
      10 -> 21         0.24319

 Excited State  50:      Singlet-A     18.7008 eV   66.30 nm  f=0.0226  <S**2>=0.000
       5 -> 13        -0.18384
      11 -> 21         0.63522
      12 -> 22         0.15519

 Excited State  51:      Singlet-A     18.9350 eV   65.48 nm  f=0.0513  <S**2>=0.000
       6 -> 14        -0.14562
       6 -> 16         0.11514
       7 -> 18        -0.18642
       8 -> 20        -0.13742
      10 -> 21         0.62312

 Excited State  52:      Singlet-A     19.0510 eV   65.08 nm  f=0.0418  <S**2>=0.000
       5 -> 13         0.62057
       6 -> 15         0.19637
       6 -> 17        -0.10058
      11 -> 21         0.16367
      12 -> 24        -0.10313

 Excited State  53:      Singlet-A     19.2491 eV   64.41 nm  f=0.0137  <S**2>=0.000
       6 -> 14         0.52345
       7 -> 18        -0.32878
       8 -> 20        -0.24006
      12 -> 23        -0.15348

 Excited State  54:      Singlet-A     19.4242 eV   63.83 nm  f=0.0169  <S**2>=0.000
       5 -> 13        -0.19872
       6 -> 15         0.51228
       6 -> 17        -0.32293
       7 -> 19         0.24675

 Excited State  55:      Singlet-A     19.5470 eV   63.43 nm  f=0.0114  <S**2>=0.000
       6 -> 15        -0.30690
       7 -> 19         0.53140
      12 -> 24        -0.25970

 Excited State  56:      Singlet-A     19.5783 eV   63.33 nm  f=0.0032  <S**2>=0.000
       6 -> 16         0.59107
       7 -> 18         0.18765
       8 -> 20        -0.16140
       9 -> 21         0.21284
      10 -> 21        -0.12117

 Excited State  57:      Singlet-A     19.6126 eV   63.22 nm  f=0.0128  <S**2>=0.000
       8 -> 20         0.29056
       9 -> 21         0.58476
      10 -> 22         0.12118

 Excited State  58:      Singlet-A     19.9110 eV   62.27 nm  f=0.0585  <S**2>=0.000
       6 -> 14         0.10374
       6 -> 16         0.29482
       8 -> 20         0.50358
       9 -> 21        -0.28877
      11 -> 23        -0.10662

 Excited State  59:      Singlet-A     19.9296 eV   62.21 nm  f=0.0030  <S**2>=0.000
       5 -> 14        -0.21108
       6 -> 15        -0.19561
       6 -> 17        -0.38344
       7 -> 19        -0.18452
      12 -> 24        -0.20689
      12 -> 25         0.40343

 Excited State  60:      Singlet-A     20.2470 eV   61.24 nm  f=0.0055  <S**2>=0.000
       5 -> 14         0.60269
       6 -> 15        -0.12661
       6 -> 17        -0.25686
      11 -> 22         0.18042

 Excited State  61:      Singlet-A     20.2999 eV   61.08 nm  f=0.1643  <S**2>=0.000
       5 -> 14        -0.13571
       6 -> 15        -0.12807
       6 -> 17        -0.30137
      10 -> 23         0.10736
      12 -> 24         0.56070

 Excited State  62:      Singlet-A     20.4256 eV   60.70 nm  f=0.0467  <S**2>=0.000
       5 -> 14         0.16719
       5 -> 16         0.21094
       7 -> 19         0.15419
      10 -> 23        -0.14273
      11 -> 22        -0.38579
      12 -> 25         0.40638

 Excited State  63:      Singlet-A     20.4573 eV   60.61 nm  f=0.0016  <S**2>=0.000
       5 -> 15         0.50003
       5 -> 17        -0.43973
       7 -> 20        -0.12427

 Excited State  64:      Singlet-A     20.7234 eV   59.83 nm  f=0.0378  <S**2>=0.000
       5 -> 16         0.49000
      11 -> 22         0.43838
      12 -> 25         0.11618

 Excited State  65:      Singlet-A     20.7918 eV   59.63 nm  f=0.0252  <S**2>=0.000
       5 -> 15         0.15513
       7 -> 20        -0.24524
      10 -> 22         0.55220
      11 -> 23         0.28154

 Excited State  66:      Singlet-A     20.8868 eV   59.36 nm  f=0.0021  <S**2>=0.000
       5 -> 15        -0.17812
       5 -> 17        -0.19665
      10 -> 22        -0.23626
      11 -> 23         0.57312

 Excited State  67:      Singlet-A     21.0865 eV   58.80 nm  f=0.0004  <S**2>=0.000
       5 -> 15         0.38669
       5 -> 17         0.47645
      10 -> 22        -0.25136
      11 -> 23         0.16259

 Excited State  68:      Singlet-A     21.1163 eV   58.71 nm  f=0.0335  <S**2>=0.000
       7 -> 20         0.60790
      10 -> 22         0.18268
      11 -> 23         0.12773
      12 -> 26        -0.15173

 Excited State  69:      Singlet-A     21.1288 eV   58.68 nm  f=0.3098  <S**2>=0.000
       5 -> 16         0.39188
       6 -> 17        -0.15107
       7 -> 19        -0.15713
      10 -> 23         0.19431
      11 -> 22        -0.26660
      12 -> 24        -0.14884
      12 -> 25        -0.25952
      12 -> 27        -0.15735

 Excited State  70:      Singlet-A     21.4926 eV   57.69 nm  f=0.0223  <S**2>=0.000
       5 -> 16        -0.11157
       6 -> 18         0.67213

 Excited State  71:      Singlet-A     21.7203 eV   57.08 nm  f=0.0466  <S**2>=0.000
       6 -> 18        -0.10328
       8 -> 21         0.15049
       9 -> 23         0.23984
      10 -> 23         0.50390
      11 -> 24        -0.15191
      11 -> 25         0.26474
      12 -> 25         0.11952

 Excited State  72:      Singlet-A     21.9560 eV   56.47 nm  f=0.0595  <S**2>=0.000
       9 -> 22         0.31599
      12 -> 26         0.59512

 Excited State  73:      Singlet-A     22.0209 eV   56.30 nm  f=0.0108  <S**2>=0.000
       6 -> 19         0.52503
       9 -> 22         0.30515
      10 -> 24         0.23177
      10 -> 25        -0.12557
      12 -> 26        -0.18927

 Excited State  74:      Singlet-A     22.1604 eV   55.95 nm  f=0.0683  <S**2>=0.000
       9 -> 23         0.59653
      10 -> 23        -0.24484
      11 -> 24        -0.13607
      12 -> 25        -0.12977

 Excited State  75:      Singlet-A     22.1694 eV   55.93 nm  f=0.0642  <S**2>=0.000
       6 -> 19         0.42902
       9 -> 22        -0.39946
      10 -> 24        -0.28822
      12 -> 26         0.17759

 Excited State  76:      Singlet-A     22.2723 eV   55.67 nm  f=0.2323  <S**2>=0.000
       8 -> 21         0.31598
       9 -> 23         0.20414
      11 -> 24         0.53472
      11 -> 25        -0.13899

 Excited State  77:      Singlet-A     22.5593 eV   54.96 nm  f=0.2085  <S**2>=0.000
       8 -> 21         0.45920
      11 -> 24        -0.33804
      11 -> 25        -0.33306

 Excited State  78:      Singlet-A     22.6112 eV   54.83 nm  f=0.0116  <S**2>=0.000
       5 -> 18         0.68559

 Excited State  79:      Singlet-A     22.8131 eV   54.35 nm  f=0.0061  <S**2>=0.000
      11 -> 24        -0.13689
      12 -> 27         0.62748

 Excited State  80:      Singlet-A     22.9141 eV   54.11 nm  f=0.0854  <S**2>=0.000
      10 -> 24         0.24685
      10 -> 25         0.62313

 Excited State  81:      Singlet-A     23.0151 eV   53.87 nm  f=0.1828  <S**2>=0.000
       5 -> 19         0.54078
       7 -> 21        -0.10075
       8 -> 21         0.12092
      10 -> 23        -0.10353
      11 -> 25         0.33792
      12 -> 27        -0.10890

 Excited State  82:      Singlet-A     23.0512 eV   53.79 nm  f=0.1420  <S**2>=0.000
       9 -> 22        -0.15185
       9 -> 24         0.42325
       9 -> 25        -0.27944
      10 -> 24         0.31832
      10 -> 25        -0.17692
      11 -> 26         0.21863

 Excited State  83:      Singlet-A     23.3015 eV   53.21 nm  f=0.3591  <S**2>=0.000
       7 -> 20        -0.10160
       9 -> 22         0.21137
       9 -> 24         0.35427
       9 -> 25        -0.27248
      10 -> 24        -0.35397
      10 -> 25         0.10626
      11 -> 26        -0.20421
      12 -> 26        -0.13874

 Excited State  84:      Singlet-A     23.3579 eV   53.08 nm  f=0.0257  <S**2>=0.000
       5 -> 19         0.34755
       6 -> 20        -0.25020
       7 -> 21         0.20800
       8 -> 21        -0.25815
      10 -> 23         0.12560
      11 -> 25        -0.31095
      12 -> 30         0.11841

 Excited State  85:      Singlet-A     23.7404 eV   52.22 nm  f=0.0000  <S**2>=0.000
       8 -> 23        -0.19109
       9 -> 24         0.38186
       9 -> 25         0.51036
      12 -> 29        -0.11021

 Excited State  86:      Singlet-A     23.7909 eV   52.11 nm  f=0.0007  <S**2>=0.000
       6 -> 20         0.38309
       7 -> 21         0.12633
       8 -> 22        -0.12016
      12 -> 28         0.53846

 Excited State  87:      Singlet-A     23.9178 eV   51.84 nm  f=0.0286  <S**2>=0.000
       5 -> 19         0.10938
       6 -> 20         0.46837
       7 -> 21         0.14277
       7 -> 22         0.13567
      12 -> 28        -0.42356

 Excited State  88:      Singlet-A     24.1107 eV   51.42 nm  f=0.0190  <S**2>=0.000
      12 -> 29         0.67430

 Excited State  89:      Singlet-A     24.1311 eV   51.38 nm  f=0.1448  <S**2>=0.000
       7 -> 21         0.51125
       8 -> 22         0.23005
      11 -> 25         0.11793
      12 -> 30        -0.33831

 Excited State  90:      Singlet-A     24.4269 eV   50.76 nm  f=0.0403  <S**2>=0.000
       5 -> 19        -0.10619
       6 -> 20        -0.13706
       7 -> 21         0.24457
       8 -> 22        -0.21599
      10 -> 26        -0.31843
      11 -> 25         0.12225
      11 -> 27        -0.15614
      12 -> 30         0.38412

 Excited State  91:      Singlet-A     24.5058 eV   50.59 nm  f=0.0648  <S**2>=0.000
       5 -> 20         0.23077
       8 -> 23        -0.28000
       9 -> 22         0.10783
      10 -> 27         0.19532
      11 -> 26         0.47481
      12 -> 31         0.17502

 Excited State  92:      Singlet-A     24.5121 eV   50.58 nm  f=0.0265  <S**2>=0.000
       8 -> 22         0.43740
      10 -> 26         0.25874
      11 -> 27         0.11152
      12 -> 30         0.41947

 Excited State  93:      Singlet-A     24.6349 eV   50.33 nm  f=0.0192  <S**2>=0.000
       7 -> 21         0.16808
       8 -> 22        -0.34918
      10 -> 26         0.52272
      11 -> 27        -0.13021

 Excited State  94:      Singlet-A     24.7451 eV   50.10 nm  f=0.0132  <S**2>=0.000
       5 -> 20         0.58583
       8 -> 23         0.16718
      11 -> 26        -0.14843
      12 -> 31         0.13348
      12 -> 32        -0.22507

 Excited State  95:      Singlet-A     24.8371 eV   49.92 nm  f=0.0024  <S**2>=0.000
       5 -> 20         0.13206
       8 -> 23         0.43682
       9 -> 25         0.18556
      10 -> 27         0.10451
      11 -> 26         0.18249
      12 -> 31        -0.28849
      12 -> 32         0.30825

 Excited State  96:      Singlet-A     24.9488 eV   49.70 nm  f=0.0007  <S**2>=0.000
       5 -> 20        -0.11246
       8 -> 23         0.21289
       9 -> 25         0.12034
      10 -> 27        -0.15417
      12 -> 31         0.55857
      12 -> 32         0.23827

 Excited State  97:      Singlet-A     25.2106 eV   49.18 nm  f=0.0039  <S**2>=0.000
      10 -> 27         0.62363
      11 -> 26        -0.17380
      12 -> 31         0.12612
      12 -> 33         0.10231

 Excited State  98:      Singlet-A     25.2249 eV   49.15 nm  f=0.0532  <S**2>=0.000
       7 -> 22        -0.13417
       8 -> 24        -0.15430
       8 -> 25         0.15184
       9 -> 26         0.61732

 Excited State  99:      Singlet-A     25.4588 eV   48.70 nm  f=0.1030  <S**2>=0.000
       7 -> 22         0.11877
       8 -> 22        -0.12961
       8 -> 24         0.15611
       9 -> 26         0.10106
      11 -> 27         0.58982
      11 -> 28         0.13741
      11 -> 30         0.15752

 Excited State 100:      Singlet-A     25.4727 eV   48.67 nm  f=0.0430  <S**2>=0.000
       5 -> 20         0.19782
       8 -> 23        -0.27097
       9 -> 27        -0.13065
      10 -> 27        -0.12179
      11 -> 26        -0.11690
      12 -> 32         0.48348
      12 -> 33         0.19597

 Excited State 101:      Singlet-A     25.8169 eV   48.02 nm  f=0.0011  <S**2>=0.000
       7 -> 22        -0.15925
       8 -> 24        -0.37566
       8 -> 25         0.10007
      11 -> 28         0.53215

 Excited State 102:      Singlet-A     25.9555 eV   47.77 nm  f=0.1898  <S**2>=0.000
       6 -> 21         0.15864
       7 -> 23        -0.36003
      11 -> 26         0.10615
      11 -> 29        -0.17928
      12 -> 33         0.48590

 Excited State 103:      Singlet-A     26.0386 eV   47.62 nm  f=0.0041  <S**2>=0.000
       7 -> 22        -0.38661
       8 -> 24         0.38801
       8 -> 25        -0.25344
      11 -> 28         0.23615

 The electronic state is 1-A.
 Alpha  occ. eigenvalues --  -14.43414 -10.32382 -10.32364  -1.05298  -0.74192
 Alpha  occ. eigenvalues --   -0.70113  -0.60849  -0.55428  -0.45418  -0.43168
 Alpha  occ. eigenvalues --   -0.41614  -0.32701
 Alpha virt. eigenvalues --    0.13588   0.17298   0.19149   0.20370   0.21442
 Alpha virt. eigenvalues --    0.25984   0.30060   0.36668   0.47259   0.53351
 Alpha virt. eigenvalues --    0.56436   0.60265   0.62782   0.67766   0.71026

 Mulliken charges:
               1
     1  C   -0.038837
     2  C   -0.038837
     3  N   -0.279961
     4  H    0.061476
     5  H    0.053233
     6  H    0.053233
     7  H    0.061476
     8  H    0.128217
 Sum of Mulliken charges =  -0.00000

 Dipole moment (field-independent basis, Debye):
    X=              0.0000    Y=             -0.7962    Z=              1.5406  Tot=              1.7342
 Quadrupole moment (field-independent basis, Debye-Ang):
   XX=            -18.4516   YY=            -20.0824   ZZ=            -18.2328
   XY=             -0.0000   XZ=             -0.0000   YZ=              2.5528

 Normal termination of Gaussian 16 at Sat Aug 14 23:21:00 2021.
