 Gaussian 16, Revision C.01,
 Gaussian 16:  EM64L-G16RevC.01  3-Jul-2019

 ----------------------------------------------------------------------
 #P TD(Nstates=10000) wB97XD/def2SVP SCF(maxcycles=100) Int(Grid=ultraf
 ine)
 ----------------------------------------------------------------------

 ---------------------
 xGDB7_00001_tier4.com
 ---------------------
 Symbolic Z-matrix:
 Charge =  0 Multiplicity = 1

                         Standard orientation:
 ---------------------------------------------------------------------
 Center     Atomic      Atomic             Coordinates (Angstroms)
 Number     Number       Type             X           Y           Z
 ---------------------------------------------------------------------
      1          9           0       -1.144917   -0.250427    0.000000
      2          6           0        0.000000    0.427393    0.000000
      3          6           0        1.183927   -0.167335    0.000000
      4          1           0       -0.158453    1.510009    0.000000
      5          1           0        1.269581   -1.255556    0.000000
      6          1           0        2.089568    0.439043    0.000000
 ---------------------------------------------------------------------

 SCF Done:  E(RwB97XD) =  -177.633929343     A.U. after   14 cycles

 Excitation energies and oscillator strengths:

 Excited State   1:      Singlet-A'     8.0802 eV  153.44 nm  f=0.3698  <S**2>=0.000
      12 -> 13         0.70024
 This state for optimization and/or second-order correction.
 Total Energy, E(TD-HF/TD-DFT) =  -177.336985950
 Copying the excited state density for this state as the 1-particle RhoCI density.

 Excited State   2:      Singlet-A"     8.6530 eV  143.28 nm  f=0.0049  <S**2>=0.000
      11 -> 13        -0.10758
      12 -> 14         0.66272
      12 -> 15         0.14851
      12 -> 16         0.14028

 Excited State   3:      Singlet-A"     8.9703 eV  138.22 nm  f=0.0000  <S**2>=0.000
      11 -> 13         0.69196
      12 -> 14         0.10434

 Excited State   4:      Singlet-A"     9.3029 eV  133.28 nm  f=0.0007  <S**2>=0.000
      12 -> 14        -0.18356
      12 -> 15         0.64996
      12 -> 16         0.18652

 Excited State   5:      Singlet-A"    10.0001 eV  123.98 nm  f=0.0032  <S**2>=0.000
      10 -> 13        -0.26519
      12 -> 15        -0.19834
      12 -> 16         0.60104
      12 -> 17        -0.13535

 Excited State   6:      Singlet-A"    10.0264 eV  123.66 nm  f=0.0031  <S**2>=0.000
      10 -> 13         0.65206
      12 -> 15        -0.10506
      12 -> 16         0.23424

 Excited State   7:      Singlet-A"    11.4959 eV  107.85 nm  f=0.0088  <S**2>=0.000
      12 -> 16         0.15339
      12 -> 17         0.68555

 Excited State   8:      Singlet-A'    11.9349 eV  103.88 nm  f=0.1272  <S**2>=0.000
      11 -> 14         0.63407
      11 -> 15         0.20144
      11 -> 16         0.14149
      11 -> 17        -0.15952

 Excited State   9:      Singlet-A"    12.1024 eV  102.45 nm  f=0.0136  <S**2>=0.000
       8 -> 13         0.69655

 Excited State  10:      Singlet-A'    12.4260 eV   99.78 nm  f=0.0366  <S**2>=0.000
       9 -> 13         0.68230
      10 -> 14        -0.10209

 Excited State  11:      Singlet-A'    12.5633 eV   98.69 nm  f=0.0118  <S**2>=0.000
      10 -> 14         0.24251
      10 -> 16         0.12799
      11 -> 14        -0.23727
      11 -> 15         0.37710
      11 -> 16         0.43243
      11 -> 17        -0.16146

 Excited State  12:      Singlet-A'    12.9487 eV   95.75 nm  f=0.3884  <S**2>=0.000
      10 -> 14        -0.24620
      10 -> 15         0.25398
      11 -> 15        -0.38944
      11 -> 16         0.44321
      11 -> 17        -0.10447

 Excited State  13:      Singlet-A'    13.1936 eV   93.97 nm  f=0.1928  <S**2>=0.000
      10 -> 14         0.43380
      10 -> 15        -0.32737
      11 -> 14         0.14459
      11 -> 15        -0.38416
      11 -> 16         0.10364

 Excited State  14:      Singlet-A'    13.3938 eV   92.57 nm  f=0.2657  <S**2>=0.000
      10 -> 14         0.40503
      10 -> 15         0.55407
      11 -> 16        -0.11884

 Excited State  15:      Singlet-A"    13.4459 eV   92.21 nm  f=0.0027  <S**2>=0.000
       7 -> 13         0.70428

 Excited State  16:      Singlet-A'    14.3900 eV   86.16 nm  f=0.1308  <S**2>=0.000
      10 -> 16         0.62117
      11 -> 16        -0.16905
      11 -> 17        -0.21192

 Excited State  17:      Singlet-A"    14.5460 eV   85.24 nm  f=0.0124  <S**2>=0.000
       9 -> 14         0.58066
       9 -> 15         0.27777
       9 -> 16         0.18313
       9 -> 17        -0.21249

 Excited State  18:      Singlet-A'    14.6597 eV   84.57 nm  f=0.1894  <S**2>=0.000
       8 -> 14        -0.30299
      10 -> 16         0.26990
      11 -> 16         0.13844
      11 -> 17         0.53157

 Excited State  19:      Singlet-A"    14.8759 eV   83.35 nm  f=0.0037  <S**2>=0.000
       9 -> 14         0.12297
       9 -> 16        -0.15044
      12 -> 18         0.67283

 Excited State  20:      Singlet-A"    15.1112 eV   82.05 nm  f=0.0003  <S**2>=0.000
       6 -> 13        -0.10663
       9 -> 14        -0.31903
       9 -> 15         0.21280
       9 -> 16         0.51615
       9 -> 17        -0.16284
      12 -> 18         0.19721

 Excited State  21:      Singlet-A'    15.2403 eV   81.35 nm  f=0.0618  <S**2>=0.000
       8 -> 14         0.56199
       8 -> 15         0.24012
       8 -> 16         0.10264
      11 -> 16         0.10354
      11 -> 17         0.29419

 Excited State  22:      Singlet-A'    15.6319 eV   79.31 nm  f=0.0420  <S**2>=0.000
       7 -> 14        -0.11750
       8 -> 14        -0.24674
       8 -> 15         0.53294
       8 -> 16         0.13883
      10 -> 17        -0.31351

 Excited State  23:      Singlet-A"    15.8311 eV   78.32 nm  f=0.0008  <S**2>=0.000
       9 -> 14        -0.14350
       9 -> 15         0.61040
       9 -> 16        -0.25911
       9 -> 17         0.16711

 Excited State  24:      Singlet-A"    15.8771 eV   78.09 nm  f=0.0009  <S**2>=0.000
       6 -> 13         0.54881
      12 -> 19         0.43531

 Excited State  25:      Singlet-A'    16.0086 eV   77.45 nm  f=0.0079  <S**2>=0.000
       8 -> 15         0.35139
       8 -> 16        -0.34779
      10 -> 17         0.45297
      11 -> 17        -0.10148
      12 -> 21        -0.10528

 Excited State  26:      Singlet-A'    16.3871 eV   75.66 nm  f=0.1511  <S**2>=0.000
       8 -> 14        -0.11381
       8 -> 16         0.53879
      10 -> 17         0.38965

 Excited State  27:      Singlet-A'    16.6312 eV   74.55 nm  f=0.1129  <S**2>=0.000
       7 -> 14         0.65412
       7 -> 16        -0.15950
      12 -> 21        -0.10845

 Excited State  28:      Singlet-A"    16.8513 eV   73.58 nm  f=0.4312  <S**2>=0.000
       6 -> 13        -0.40297
       9 -> 16        -0.18794
      12 -> 19         0.52540

 Excited State  29:      Singlet-A'    17.2417 eV   71.91 nm  f=0.1668  <S**2>=0.000
       7 -> 15         0.50267
       7 -> 16         0.38120
       7 -> 17        -0.14320
       8 -> 16         0.13448
       8 -> 17         0.18723

 Excited State  30:      Singlet-A'    17.5078 eV   70.82 nm  f=0.0016  <S**2>=0.000
       6 -> 14        -0.15960
       7 -> 15         0.45205
       7 -> 16        -0.33750
       7 -> 17         0.10191
       8 -> 17        -0.34187

 Excited State  31:      Singlet-A"    17.6137 eV   70.39 nm  f=0.1103  <S**2>=0.000
       9 -> 14         0.13907
       9 -> 16         0.25277
       9 -> 17         0.62326
      12 -> 19         0.11674

 Excited State  32:      Singlet-A'    17.7479 eV   69.86 nm  f=0.0691  <S**2>=0.000
       6 -> 14         0.21493
       7 -> 14        -0.13161
       7 -> 15         0.13239
       7 -> 16        -0.37155
       8 -> 17         0.47455

 Excited State  33:      Singlet-A'    18.5773 eV   66.74 nm  f=0.1817  <S**2>=0.000
       6 -> 14        -0.35607
       6 -> 15        -0.21118
       8 -> 17         0.10562
      10 -> 18        -0.17994
      11 -> 18         0.44707
      11 -> 19         0.10686
      12 -> 21         0.18614

 Excited State  34:      Singlet-A"    18.5937 eV   66.68 nm  f=0.0149  <S**2>=0.000
       5 -> 13        -0.10047
      12 -> 20         0.68466

 Excited State  35:      Singlet-A'    18.6288 eV   66.55 nm  f=0.1390  <S**2>=0.000
       6 -> 14         0.45889
       8 -> 17        -0.24545
      11 -> 18         0.43416

 Excited State  36:      Singlet-A'    19.0694 eV   65.02 nm  f=0.0929  <S**2>=0.000
       6 -> 15        -0.18867
       6 -> 16         0.19779
      10 -> 18         0.46151
      11 -> 19         0.15090
      12 -> 21         0.36697

 Excited State  37:      Singlet-A'    19.1505 eV   64.74 nm  f=0.0961  <S**2>=0.000
       6 -> 14        -0.12680
       6 -> 15         0.17091
       7 -> 16        -0.11516
       7 -> 17        -0.37417
      10 -> 18         0.41683
      11 -> 18         0.19242
      11 -> 19        -0.12606
      12 -> 21        -0.20550

 Excited State  38:      Singlet-A'    19.3424 eV   64.10 nm  f=0.0165  <S**2>=0.000
       6 -> 15         0.40723
       6 -> 16         0.29925
       7 -> 16        -0.10937
       7 -> 17        -0.27642
      10 -> 18        -0.17433
      11 -> 18        -0.10268
      11 -> 19         0.12401
      12 -> 21         0.25855

 Excited State  39:      Singlet-A'    19.4841 eV   63.63 nm  f=0.0133  <S**2>=0.000
       6 -> 14        -0.20278
       6 -> 15         0.37782
       7 -> 16         0.11306
       7 -> 17         0.44288
       8 -> 18         0.11183
      10 -> 18         0.10564
      11 -> 18         0.14108
      12 -> 21        -0.10496
      12 -> 24        -0.13144

 Excited State  40:      Singlet-A'    19.7583 eV   62.75 nm  f=0.0507  <S**2>=0.000
       6 -> 16        -0.35608
      11 -> 19         0.56554

 Excited State  41:      Singlet-A"    19.8840 eV   62.35 nm  f=0.0516  <S**2>=0.000
       5 -> 13        -0.37810
      12 -> 22         0.58547

 Excited State  42:      Singlet-A"    20.1890 eV   61.41 nm  f=0.0252  <S**2>=0.000
       5 -> 13        -0.38531
      12 -> 22        -0.18909
      12 -> 23         0.54702

 Excited State  43:      Singlet-A'    20.3692 eV   60.87 nm  f=0.1067  <S**2>=0.000
       6 -> 15        -0.19857
       6 -> 16         0.37400
       8 -> 18         0.16056
      10 -> 19         0.13634
      11 -> 19         0.26330
      11 -> 20         0.19202
      12 -> 21        -0.31631
      12 -> 24         0.11817

 Excited State  44:      Singlet-A"    20.4353 eV   60.67 nm  f=0.1876  <S**2>=0.000
       5 -> 13         0.42192
      12 -> 20         0.14505
      12 -> 22         0.33081
      12 -> 23         0.41446

 Excited State  45:      Singlet-A'    20.5405 eV   60.36 nm  f=0.0199  <S**2>=0.000
      10 -> 19         0.65805

 Excited State  46:      Singlet-A"    21.2165 eV   58.44 nm  f=0.0006  <S**2>=0.000
       9 -> 18         0.68412
       9 -> 20         0.11621

 Excited State  47:      Singlet-A'    21.3717 eV   58.01 nm  f=0.0507  <S**2>=0.000
       6 -> 16         0.18642
       6 -> 17         0.62660
      12 -> 24         0.14510

 Excited State  48:      Singlet-A'    21.4798 eV   57.72 nm  f=0.1912  <S**2>=0.000
       6 -> 17        -0.19102
       8 -> 18         0.40212
       8 -> 19        -0.12126
      11 -> 20        -0.22086
      12 -> 24         0.43471

 Excited State  49:      Singlet-A'    21.5915 eV   57.42 nm  f=0.1072  <S**2>=0.000
       6 -> 16        -0.11761
       8 -> 18         0.33548
      10 -> 19        -0.13840
      11 -> 20         0.49806
      11 -> 23        -0.15553
      12 -> 21         0.12442

 Excited State  50:      Singlet-A"    21.8442 eV   56.76 nm  f=0.0340  <S**2>=0.000
       9 -> 19         0.11539
      11 -> 21         0.68290

 Excited State  51:      Singlet-A'    22.0105 eV   56.33 nm  f=0.1284  <S**2>=0.000
       5 -> 15         0.11489
       8 -> 18        -0.34809
      11 -> 20         0.24744
      11 -> 22        -0.13478
      11 -> 23        -0.15692
      12 -> 24         0.42911

 Excited State  52:      Singlet-A"    22.2777 eV   55.65 nm  f=0.2640  <S**2>=0.000
       9 -> 19         0.68157
       9 -> 23        -0.10570
      11 -> 21        -0.11188

 Excited State  53:      Singlet-A'    22.6211 eV   54.81 nm  f=0.0553  <S**2>=0.000
       7 -> 18        -0.13975
       8 -> 19         0.58232
      10 -> 20         0.24833
      11 -> 23        -0.15694

 Excited State  54:      Singlet-A"    22.7502 eV   54.50 nm  f=0.0000  <S**2>=0.000
      10 -> 21         0.68351
      10 -> 24         0.13714

 Excited State  55:      Singlet-A'    22.8773 eV   54.20 nm  f=0.0266  <S**2>=0.000
       7 -> 18         0.59288
       8 -> 19         0.20855
      10 -> 20        -0.14743
      11 -> 22        -0.18715
      11 -> 23         0.10864

 Excited State  56:      Singlet-A'    22.9892 eV   53.93 nm  f=0.0060  <S**2>=0.000
       5 -> 14         0.65718
      10 -> 20        -0.17175

 Excited State  57:      Singlet-A'    23.1936 eV   53.46 nm  f=0.0210  <S**2>=0.000
       5 -> 14         0.16897
       7 -> 18         0.28734
       8 -> 19        -0.20572
      10 -> 20         0.49122
      11 -> 22         0.13047
      11 -> 23        -0.22377

 Excited State  58:      Singlet-A"    23.4034 eV   52.98 nm  f=0.0003  <S**2>=0.000
      12 -> 25         0.68959

 Excited State  59:      Singlet-A'    23.4676 eV   52.83 nm  f=0.0055  <S**2>=0.000
       5 -> 15         0.64210
      11 -> 22         0.17087

 Excited State  60:      Singlet-A'    23.6333 eV   52.46 nm  f=0.0314  <S**2>=0.000
       5 -> 15        -0.14974
       5 -> 16        -0.21756
       7 -> 19         0.24231
       8 -> 19         0.10978
      10 -> 22         0.16715
      11 -> 20         0.18503
      11 -> 22         0.43487
      11 -> 23         0.24300

 Excited State  61:      Singlet-A'    23.9105 eV   51.85 nm  f=0.0085  <S**2>=0.000
       5 -> 16         0.11888
       7 -> 19         0.61518
      10 -> 23         0.14225
      11 -> 22        -0.17595
      11 -> 23        -0.10909

 Excited State  62:      Singlet-A"    23.9826 eV   51.70 nm  f=0.0511  <S**2>=0.000
       9 -> 18        -0.10044
       9 -> 20         0.56463
       9 -> 22        -0.18801
       9 -> 23        -0.14477
      12 -> 25        -0.11993
      12 -> 26        -0.28004

 Excited State  63:      Singlet-A'    24.0000 eV   51.66 nm  f=0.0459  <S**2>=0.000
       5 -> 15        -0.13602
       5 -> 16         0.52151
       5 -> 17        -0.10725
       8 -> 19         0.11494
      10 -> 20        -0.20317
      10 -> 22         0.12535
      11 -> 22         0.22340
      11 -> 23        -0.15475

 Excited State  64:      Singlet-A"    24.1568 eV   51.32 nm  f=0.0002  <S**2>=0.000
       9 -> 20         0.26498
       9 -> 22        -0.11284
      12 -> 26         0.63044

 Excited State  65:      Singlet-A'    24.2109 eV   51.21 nm  f=0.1331  <S**2>=0.000
       5 -> 16         0.29947
       6 -> 18        -0.10532
       8 -> 20         0.22723
       9 -> 21        -0.15169
      10 -> 20         0.19562
      10 -> 22        -0.21332
      11 -> 20         0.11297
      11 -> 23         0.41212

 Excited State  66:      Singlet-A"    24.3605 eV   50.90 nm  f=0.0030  <S**2>=0.000
       8 -> 21        -0.38704
       8 -> 24        -0.11151
      11 -> 24         0.56057

 Excited State  67:      Singlet-A"    24.4415 eV   50.73 nm  f=0.0003  <S**2>=0.000
      12 -> 27         0.69531

 Excited State  68:      Singlet-A'    24.4719 eV   50.66 nm  f=0.1107  <S**2>=0.000
       7 -> 19        -0.15748
       7 -> 20         0.11656
       8 -> 22        -0.12230
      10 -> 22         0.50254
      10 -> 23         0.30602
      11 -> 22        -0.15463
      11 -> 23         0.15514

 Excited State  69:      Singlet-A'    24.8154 eV   49.96 nm  f=0.0664  <S**2>=0.000
       5 -> 16         0.10213
       9 -> 21         0.59796
      10 -> 22         0.11904
      10 -> 23        -0.16901
      11 -> 22        -0.15936
      11 -> 23         0.12655
      11 -> 25         0.10106

 Excited State  70:      Singlet-A'    24.9862 eV   49.62 nm  f=0.0857  <S**2>=0.000
       6 -> 18         0.56783
       6 -> 19         0.10146
       7 -> 19        -0.10008
       8 -> 20        -0.25673
      10 -> 22        -0.13571
      11 -> 23         0.10401

 Excited State  71:      Singlet-A'    25.0532 eV   49.49 nm  f=0.2386  <S**2>=0.000
       5 -> 17        -0.11496
       8 -> 20         0.11385
       9 -> 21         0.24138
      10 -> 22        -0.24942
      10 -> 23         0.52576
      11 -> 22         0.14451

 Excited State  72:      Singlet-A"    25.0673 eV   49.46 nm  f=0.0230  <S**2>=0.000
       7 -> 21        -0.17142
       8 -> 21         0.45790
      10 -> 21         0.12815
      10 -> 24        -0.41702
      11 -> 24         0.24687

 Excited State  73:      Singlet-A'    25.2868 eV   49.03 nm  f=0.0531  <S**2>=0.000
       6 -> 18         0.36027
       8 -> 20         0.51850
      10 -> 22         0.13602

 Excited State  74:      Singlet-A"    25.3268 eV   48.95 nm  f=0.0076  <S**2>=0.000
       7 -> 21         0.19360
       8 -> 21         0.35929
      10 -> 24         0.47836
      11 -> 24         0.29227

 Excited State  75:      Singlet-A"    25.6335 eV   48.37 nm  f=0.0001  <S**2>=0.000
       9 -> 22         0.51385
       9 -> 23        -0.46461

 Excited State  76:      Singlet-A'    25.6860 eV   48.27 nm  f=0.0157  <S**2>=0.000
       5 -> 16         0.12236
       5 -> 17         0.66366
      10 -> 23         0.12816

 Excited State  77:      Singlet-A'    26.1021 eV   47.50 nm  f=0.0505  <S**2>=0.000
       6 -> 19         0.52748
       7 -> 20         0.32433
       8 -> 20         0.11795
       8 -> 22         0.17684
      11 -> 25         0.13383

 Excited State  78:      Singlet-A'    26.3080 eV   47.13 nm  f=0.0335  <S**2>=0.000
       6 -> 19        -0.33121
       6 -> 20         0.11041
       7 -> 20         0.44381
       7 -> 22        -0.11751
       8 -> 22        -0.13462
       8 -> 23         0.30660

 Excited State  79:      Singlet-A"    26.3757 eV   47.01 nm  f=0.0039  <S**2>=0.000
       7 -> 21         0.58901
       7 -> 24        -0.11457
       9 -> 20        -0.10903
       9 -> 22        -0.18293
       9 -> 23        -0.17454
      10 -> 24        -0.23511

 Excited State  80:      Singlet-A"    26.4311 eV   46.91 nm  f=0.0297  <S**2>=0.000
       7 -> 21         0.25147
       9 -> 20         0.24830
       9 -> 22         0.38377
       9 -> 23         0.45390

 Excited State  81:      Singlet-A'    26.4431 eV   46.89 nm  f=0.0224  <S**2>=0.000
       6 -> 19        -0.18852
       6 -> 20         0.11063
       8 -> 22         0.59858
      10 -> 22         0.11030
      11 -> 25        -0.19688

 Excited State  82:      Singlet-A'    26.8924 eV   46.10 nm  f=0.0544  <S**2>=0.000
       6 -> 19        -0.17699
       7 -> 22        -0.13328
       8 -> 20        -0.10202
       8 -> 22         0.14498
       8 -> 23        -0.19792
      10 -> 25         0.12626
      11 -> 25         0.53363
      11 -> 26        -0.18504

 Excited State  83:      Singlet-A"    27.0027 eV   45.92 nm  f=0.0002  <S**2>=0.000
       8 -> 24        -0.10475
      12 -> 28         0.69211

 Excited State  84:      Singlet-A'    27.1772 eV   45.62 nm  f=0.0146  <S**2>=0.000
       6 -> 20        -0.17178
       7 -> 20        -0.26825
       8 -> 23         0.50832
      10 -> 26        -0.13363
      11 -> 25         0.21015

 Excited State  85:      Singlet-A"    27.3421 eV   45.35 nm  f=0.0391  <S**2>=0.000
       6 -> 21         0.23658
       8 -> 24         0.63688
      11 -> 24         0.12046
      12 -> 28         0.12325

 Excited State  86:      Singlet-A'    27.6304 eV   44.87 nm  f=0.0119  <S**2>=0.000
       7 -> 23        -0.18385
       8 -> 23        -0.10798
       9 -> 24         0.29690
      11 -> 25         0.19616
      11 -> 26         0.52628

 Excited State  87:      Singlet-A'    27.6950 eV   44.77 nm  f=0.0140  <S**2>=0.000
       7 -> 22        -0.11882
       9 -> 21         0.10443
       9 -> 24         0.59854
      11 -> 26        -0.26195

 Excited State  88:      Singlet-A'    27.8575 eV   44.51 nm  f=0.0556  <S**2>=0.000
       7 -> 22         0.39773
      10 -> 25         0.50866
      11 -> 27        -0.14974

 Excited State  89:      Singlet-A'    27.9821 eV   44.31 nm  f=0.0349  <S**2>=0.000
       7 -> 22         0.47386
       7 -> 23        -0.12733
      10 -> 25        -0.24536
      11 -> 26        -0.17887
      11 -> 27         0.34189

 Excited State  90:      Singlet-A'    28.1348 eV   44.07 nm  f=0.0345  <S**2>=0.000
       6 -> 20        -0.11339
       7 -> 20         0.13152
       7 -> 23         0.54295
      10 -> 26         0.18704
      11 -> 26         0.18396
      11 -> 27         0.21453

 Excited State  91:      Singlet-A'    28.3807 eV   43.69 nm  f=0.0320  <S**2>=0.000
       7 -> 22        -0.10168
       8 -> 27        -0.10073
      10 -> 25         0.30677
      10 -> 26        -0.37724
      11 -> 27         0.44075

 Excited State  92:      Singlet-A'    28.5018 eV   43.50 nm  f=0.1987  <S**2>=0.000
       7 -> 20        -0.11873
       7 -> 22        -0.17190
       7 -> 23        -0.28358
      10 -> 25         0.13308
      10 -> 26         0.46877
      11 -> 27         0.27505

 Excited State  93:      Singlet-A"    28.6319 eV   43.30 nm  f=0.0048  <S**2>=0.000
       6 -> 21         0.65115
       8 -> 24        -0.24526

 Excited State  94:      Singlet-A'    28.8767 eV   42.94 nm  f=0.1861  <S**2>=0.000
       5 -> 18        -0.23821
       6 -> 20         0.56191
       7 -> 20        -0.10714
       8 -> 22        -0.10537
      10 -> 27        -0.20688

 Excited State  95:      Singlet-A"    29.1699 eV   42.50 nm  f=0.0219  <S**2>=0.000
       7 -> 21         0.10764
       7 -> 24         0.65326
       9 -> 25         0.20659

 Excited State  96:      Singlet-A"    29.2308 eV   42.42 nm  f=0.0000  <S**2>=0.000
       7 -> 24        -0.21937
       9 -> 25         0.62538
       9 -> 26        -0.23024

 The electronic state is 1-A'.
 Alpha  occ. eigenvalues --  -24.82374 -10.38459 -10.30123  -1.31258  -0.86176
 Alpha  occ. eigenvalues --   -0.69695  -0.62124  -0.57267  -0.55447  -0.49416
 Alpha  occ. eigenvalues --   -0.45820  -0.34895
 Alpha virt. eigenvalues --    0.08797   0.16346   0.18183   0.20945   0.26923
 Alpha virt. eigenvalues --    0.40705   0.46215   0.55049   0.55926   0.59051
 Alpha virt. eigenvalues --    0.61203   0.65256   0.71974   0.74178   0.77041

 Mulliken charges:
               1
     1  F   -0.211482
     2  C    0.172606
     3  C   -0.147454
     4  H    0.046891
     5  H    0.072372
     6  H    0.067067
 Sum of Mulliken charges =  -0.00000

 Dipole moment (field-independent basis, Debye):
    X=              1.0224    Y=              0.8049    Z=              0.0000  Tot=              1.3012
 Quadrupole moment (field-independent basis, Debye-Ang):
   XX=            -17.3953   YY=            -15.3241   ZZ=            -18.6594
   XY=             -0.6407   XZ=              0.0000   YZ=              0.0000

 Normal termination of Gaussian 16 at Sat Aug 14 23:28:09 2021.
