 Gaussian 16, Revision C.01,
 Gaussian 16:  EM64L-G16RevC.01  3-Jul-2019

 ----------------------------------------------------------------------
 #P TD(Nstates=10000) wB97XD/def2SVP SCF(maxcycles=100) Int(Grid=ultraf
 ine)
 ----------------------------------------------------------------------

 ---------------------
 xGDB7_00001_tier4.com
 ---------------------
 Symbolic Z-matrix:
 Charge =  0 Multiplicity = 1

                         Standard orientation:
 ---------------------------------------------------------------------
 Center     Atomic      Atomic             Coordinates (Angstroms)
 Number     Number       Type             X           Y           Z
 ---------------------------------------------------------------------
      1          6           0        0.000000    1.272934   -0.258139
      2          6           0       -0.000000   -0.000000    0.582399
      3          6           0       -0.000000   -1.272934   -0.258139
      4          1           0        0.000000    2.175267    0.371719
      5          1           0       -0.887995    1.319511   -0.908891
      6          1           0        0.887995    1.319511   -0.908891
      7          1           0       -0.879879    0.000000    1.247700
      8          1           0        0.879879   -0.000000    1.247700
      9          1           0       -0.887995   -1.319511   -0.908891
     10          1           0       -0.000000   -2.175267    0.371719
     11          1           0        0.887995   -1.319511   -0.908891
 ---------------------------------------------------------------------

 SCF Done:  E(RwB97XD) =  -119.020844482     A.U. after   12 cycles

 Excitation energies and oscillator strengths:

 Excited State   1:      Singlet-B1     9.9962 eV  124.03 nm  f=0.0017  <S**2>=0.000
      13 -> 14         0.69320
 This state for optimization and/or second-order correction.
 Total Energy, E(TD-HF/TD-DFT) =  -118.653492476
 Copying the excited state density for this state as the 1-particle RhoCI density.

 Excited State   2:      Singlet-A1    10.4170 eV  119.02 nm  f=0.0076  <S**2>=0.000
      12 -> 14         0.69146

 Excited State   3:      Singlet-B2    10.4754 eV  118.36 nm  f=0.0619  <S**2>=0.000
      11 -> 14         0.69715

 Excited State   4:      Singlet-A2    11.1797 eV  110.90 nm  f=0.0000  <S**2>=0.000
      10 -> 14         0.51215
      13 -> 15        -0.46746

 Excited State   5:      Singlet-B1    11.4366 eV  108.41 nm  f=0.1759  <S**2>=0.000
      12 -> 16        -0.21798
      13 -> 17         0.65827

 Excited State   6:      Singlet-A1    11.4666 eV  108.13 nm  f=0.1053  <S**2>=0.000
      12 -> 17        -0.30564
      13 -> 16         0.62464

 Excited State   7:      Singlet-B2    11.5624 eV  107.23 nm  f=0.0001  <S**2>=0.000
       9 -> 14        -0.39877
      12 -> 15         0.56455

 Excited State   8:      Singlet-A2    11.6268 eV  106.64 nm  f=0.0000  <S**2>=0.000
      11 -> 16         0.68690

 Excited State   9:      Singlet-B1    11.6953 eV  106.01 nm  f=0.4329  <S**2>=0.000
      12 -> 16         0.64974
      13 -> 17         0.21898

 Excited State  10:      Singlet-A1    11.7886 eV  105.17 nm  f=0.4224  <S**2>=0.000
       8 -> 14         0.14929
      11 -> 15         0.42878
      12 -> 17         0.45954
      13 -> 16         0.27131

 Excited State  11:      Singlet-B2    11.8383 eV  104.73 nm  f=0.0266  <S**2>=0.000
       9 -> 14        -0.10661
      11 -> 17         0.68510

 Excited State  12:      Singlet-A1    11.8675 eV  104.47 nm  f=0.1105  <S**2>=0.000
       8 -> 14         0.12708
      11 -> 15         0.49268
      12 -> 17        -0.41839
      13 -> 16        -0.14936
      13 -> 19        -0.13693

 Excited State  13:      Singlet-A2    12.0113 eV  103.22 nm  f=0.0000  <S**2>=0.000
      10 -> 14         0.45502
      11 -> 16         0.12655
      13 -> 15         0.50798

 Excited State  14:      Singlet-B1    12.1590 eV  101.97 nm  f=0.0476  <S**2>=0.000
       7 -> 14         0.10376
      10 -> 15         0.20108
      13 -> 18         0.65254

 Excited State  15:      Singlet-B2    12.5217 eV   99.02 nm  f=0.0602  <S**2>=0.000
       9 -> 14         0.52926
      11 -> 17         0.11501
      11 -> 18         0.12668
      11 -> 22         0.10244
      12 -> 15         0.36777
      12 -> 20         0.12710

 Excited State  16:      Singlet-A2    12.5228 eV   99.01 nm  f=0.0000  <S**2>=0.000
      10 -> 17         0.44851
      10 -> 18        -0.16793
      13 -> 20         0.49399

 Excited State  17:      Singlet-A1    12.5460 eV   98.82 nm  f=0.1375  <S**2>=0.000
       9 -> 15         0.19639
      12 -> 18         0.64851
      13 -> 19        -0.14770

 Excited State  18:      Singlet-B2    12.6044 eV   98.37 nm  f=0.4233  <S**2>=0.000
       8 -> 15        -0.13314
      11 -> 18         0.65102
      12 -> 15        -0.13325

 Excited State  19:      Singlet-B1    12.7724 eV   97.07 nm  f=0.0161  <S**2>=0.000
       9 -> 21         0.11030
      12 -> 19         0.68197

 Excited State  20:      Singlet-B2    12.7753 eV   97.05 nm  f=0.0206  <S**2>=0.000
       9 -> 14         0.15067
       9 -> 17        -0.17152
       9 -> 18         0.11408
      10 -> 16         0.46899
      12 -> 20        -0.24756
      13 -> 21        -0.36714

 Excited State  21:      Singlet-A2    12.9059 eV   96.07 nm  f=0.0000  <S**2>=0.000
       9 -> 16        -0.39699
      11 -> 19         0.43312
      12 -> 21         0.34455

 Excited State  22:      Singlet-A1    12.9322 eV   95.87 nm  f=0.0004  <S**2>=0.000
      11 -> 15         0.11304
      11 -> 20         0.20660
      12 -> 18         0.11249
      13 -> 19         0.63024

 Excited State  23:      Singlet-A2    12.9715 eV   95.58 nm  f=0.0000  <S**2>=0.000
       9 -> 16         0.23897
       9 -> 19        -0.14064
      11 -> 19         0.52775
      12 -> 21        -0.36973

 Excited State  24:      Singlet-B2    13.0850 eV   94.75 nm  f=0.6386  <S**2>=0.000
       9 -> 17         0.25387
      10 -> 16         0.25651
      11 -> 18        -0.15537
      12 -> 20         0.53259
      13 -> 21        -0.17057

 Excited State  25:      Singlet-B1    13.1112 eV   94.56 nm  f=0.0928  <S**2>=0.000
       7 -> 14         0.16982
       8 -> 16         0.12221
      10 -> 15         0.49480
      10 -> 20         0.10632
      11 -> 21         0.35954
      13 -> 18        -0.15403
      13 -> 22         0.16434

 Excited State  26:      Singlet-B1    13.1286 eV   94.44 nm  f=0.0902  <S**2>=0.000
       7 -> 14        -0.16875
       8 -> 16         0.16346
      10 -> 15        -0.34761
      11 -> 21         0.53785
      13 -> 18         0.11981

 Excited State  27:      Singlet-A1    13.3359 eV   92.97 nm  f=0.0064  <S**2>=0.000
       8 -> 14         0.50163
       9 -> 15         0.17515
      11 -> 15        -0.16783
      11 -> 20         0.32965
      12 -> 18        -0.16447
      13 -> 19        -0.11989

 Excited State  28:      Singlet-A2    13.3701 eV   92.73 nm  f=0.0000  <S**2>=0.000
      10 -> 17         0.51695
      10 -> 18         0.10517
      13 -> 20        -0.45158

 Excited State  29:      Singlet-B2    13.3864 eV   92.62 nm  f=0.0217  <S**2>=0.000
      10 -> 16         0.42536
      13 -> 21         0.54891

 Excited State  30:      Singlet-A1    13.4544 eV   92.15 nm  f=0.2567  <S**2>=0.000
       8 -> 14        -0.30803
       9 -> 15        -0.24941
       9 -> 20        -0.10842
      11 -> 20         0.51105
      12 -> 22        -0.10265
      13 -> 19        -0.14601

 Excited State  31:      Singlet-A2    13.7355 eV   90.27 nm  f=0.0000  <S**2>=0.000
       9 -> 16         0.52035
       9 -> 19         0.10904
      10 -> 18        -0.10734
      11 -> 19         0.10750
      12 -> 21         0.42880

 Excited State  32:      Singlet-B1    13.8137 eV   89.75 nm  f=0.0661  <S**2>=0.000
       7 -> 14        -0.35579
       7 -> 17        -0.12041
      10 -> 20         0.22930
      11 -> 21        -0.14672
      13 -> 22         0.50060

 Excited State  33:      Singlet-B2    13.8420 eV   89.57 nm  f=0.0149  <S**2>=0.000
       9 -> 17         0.58459
       9 -> 18         0.13391
      11 -> 22        -0.20899
      12 -> 20        -0.28472

 Excited State  34:      Singlet-A1    13.9430 eV   88.92 nm  f=0.0128  <S**2>=0.000
       8 -> 14        -0.29579
       8 -> 18        -0.12626
       9 -> 15         0.57937
      11 -> 20         0.10348
      12 -> 18        -0.14278

 Excited State  35:      Singlet-B1    14.0091 eV   88.50 nm  f=0.0002  <S**2>=0.000
       7 -> 14         0.50001
      10 -> 15        -0.24324
      10 -> 20        -0.10204
      13 -> 22         0.40585

 Excited State  36:      Singlet-B2    14.0924 eV   87.98 nm  f=0.1362  <S**2>=0.000
       8 -> 15        -0.11520
       9 -> 17         0.16499
       9 -> 18         0.16915
      10 -> 19         0.20090
      11 -> 22         0.58956
      12 -> 23        -0.13056

 Excited State  37:      Singlet-A2    14.1017 eV   87.92 nm  f=0.0000  <S**2>=0.000
       7 -> 15        -0.16446
      10 -> 18         0.63196
      12 -> 21         0.15337
      13 -> 20         0.17316

 Excited State  38:      Singlet-A1    14.1826 eV   87.42 nm  f=0.0001  <S**2>=0.000
       8 -> 17         0.11725
      10 -> 21        -0.12390
      11 -> 20         0.16085
      12 -> 22         0.64382

 Excited State  39:      Singlet-B1    14.3637 eV   86.32 nm  f=0.1531  <S**2>=0.000
       7 -> 14         0.19316
       7 -> 17        -0.25711
       7 -> 18         0.16588
       9 -> 21         0.13395
      10 -> 15        -0.11518
      10 -> 20         0.53296
      13 -> 22        -0.15760

 Excited State  40:      Singlet-B2    14.3891 eV   86.17 nm  f=0.0556  <S**2>=0.000
       8 -> 15         0.16659
       9 -> 18        -0.40325
      10 -> 19         0.48595
      12 -> 20        -0.10458
      12 -> 23         0.13153
      13 -> 21        -0.13088

 Excited State  41:      Singlet-B1    14.5871 eV   85.00 nm  f=0.0168  <S**2>=0.000
       8 -> 16         0.61960
       9 -> 21         0.22764
      11 -> 21        -0.18253
      12 -> 19        -0.10460

 Excited State  42:      Singlet-A1    14.6397 eV   84.69 nm  f=0.0796  <S**2>=0.000
       7 -> 16        -0.24853
       8 -> 17         0.43268
       9 -> 20        -0.28960
      10 -> 21        -0.31662
      12 -> 22        -0.17453

 Excited State  43:      Singlet-B2    14.6659 eV   84.54 nm  f=0.0037  <S**2>=0.000
       8 -> 15        -0.16290
       9 -> 18         0.43151
      10 -> 19         0.37752
      11 -> 22        -0.19609
      12 -> 20         0.17179
      12 -> 23         0.23642

 Excited State  44:      Singlet-A2    14.7495 eV   84.06 nm  f=0.0000  <S**2>=0.000
       7 -> 15        -0.10732
      10 -> 22        -0.24970
      13 -> 23         0.63121

 Excited State  45:      Singlet-A2    14.8052 eV   83.74 nm  f=0.0000  <S**2>=0.000
       9 -> 19         0.67181
      12 -> 21        -0.15865

 Excited State  46:      Singlet-A1    14.9685 eV   82.83 nm  f=0.0703  <S**2>=0.000
       8 -> 17         0.44948
       8 -> 18         0.14274
       9 -> 20         0.14370
      10 -> 21         0.47037

 Excited State  47:      Singlet-B2    14.9984 eV   82.66 nm  f=0.1046  <S**2>=0.000
       8 -> 15         0.58797
       9 -> 18         0.24281
      11 -> 18         0.10579
      12 -> 23        -0.20275

 Excited State  48:      Singlet-A1    15.1656 eV   81.75 nm  f=0.1396  <S**2>=0.000
       7 -> 16         0.35851
       8 -> 17         0.20436
       8 -> 18         0.22607
       9 -> 20         0.34559
      10 -> 21        -0.34121
      11 -> 23         0.13007

 Excited State  49:      Singlet-B1    15.2512 eV   81.29 nm  f=0.1421  <S**2>=0.000
       7 -> 17        -0.43272
       8 -> 16        -0.16684
       9 -> 21         0.43757
      10 -> 20        -0.24702

 Excited State  50:      Singlet-A2    15.2640 eV   81.23 nm  f=0.0000  <S**2>=0.000
       7 -> 15        -0.29658
      10 -> 22         0.59348
      13 -> 23         0.17357

 Excited State  51:      Singlet-B1    15.3678 eV   80.68 nm  f=0.1179  <S**2>=0.000
       7 -> 17         0.46297
       7 -> 18         0.12424
       8 -> 16        -0.16562
       9 -> 21         0.43502
      10 -> 20         0.13434

 Excited State  52:      Singlet-A1    15.5101 eV   79.94 nm  f=0.0450  <S**2>=0.000
       8 -> 14        -0.10807
       8 -> 18         0.31073
       9 -> 20        -0.26095
      11 -> 20        -0.11319
      11 -> 23         0.49097
      12 -> 22         0.10562

 Excited State  53:      Singlet-A2    15.5428 eV   79.77 nm  f=0.0000  <S**2>=0.000
       7 -> 15         0.59357
      10 -> 18         0.12827
      10 -> 22         0.26674
      13 -> 23         0.21536

 Excited State  54:      Singlet-A1    15.5659 eV   79.65 nm  f=0.0077  <S**2>=0.000
       7 -> 16         0.51175
       8 -> 22         0.11839
       9 -> 20        -0.39032
      11 -> 23        -0.16076

 Excited State  55:      Singlet-B2    15.6287 eV   79.33 nm  f=0.4008  <S**2>=0.000
       8 -> 15         0.18878
       8 -> 20         0.21408
       9 -> 22         0.10107
      10 -> 19        -0.16657
      11 -> 22         0.19790
      12 -> 23         0.56176

 Excited State  56:      Singlet-B2    15.9285 eV   77.84 nm  f=0.2465  <S**2>=0.000
       8 -> 20        -0.17788
       9 -> 22         0.66107

 Excited State  57:      Singlet-B1    16.0009 eV   77.49 nm  f=0.0188  <S**2>=0.000
       7 -> 18        -0.17639
       8 -> 19         0.64018
       9 -> 21         0.12213
      10 -> 23        -0.10974
      11 -> 21         0.11222

 Excited State  58:      Singlet-A1    16.0262 eV   77.36 nm  f=0.0669  <S**2>=0.000
       7 -> 16        -0.12289
       8 -> 17        -0.14782
       8 -> 18         0.53327
      11 -> 23        -0.38009

 Excited State  59:      Singlet-B1    16.2654 eV   76.23 nm  f=0.1590  <S**2>=0.000
       7 -> 18         0.63942
       8 -> 19         0.20199
      10 -> 20        -0.14374

 Excited State  60:      Singlet-A2    16.3024 eV   76.05 nm  f=0.0000  <S**2>=0.000
       8 -> 21         0.68588

 Excited State  61:      Singlet-B2    16.5007 eV   75.14 nm  f=0.0066  <S**2>=0.000
       7 -> 21         0.26321
       8 -> 15        -0.10187
       8 -> 20         0.58741
       9 -> 22         0.10346
      10 -> 19         0.10474
      12 -> 23        -0.11306

 Excited State  62:      Singlet-A1    16.5683 eV   74.83 nm  f=0.0858  <S**2>=0.000
       7 -> 19         0.64710
       9 -> 23        -0.20465

 Excited State  63:      Singlet-B1    16.5904 eV   74.73 nm  f=0.0942  <S**2>=0.000
       7 -> 22         0.21703
      10 -> 23         0.64839

 Excited State  64:      Singlet-A2    16.7725 eV   73.92 nm  f=0.0000  <S**2>=0.000
       7 -> 20         0.68106
      10 -> 18        -0.10390

 Excited State  65:      Singlet-A1    16.8650 eV   73.52 nm  f=0.0674  <S**2>=0.000
       7 -> 19         0.12493
       8 -> 22         0.51383
       9 -> 20         0.10866
       9 -> 23         0.42666

 Excited State  66:      Singlet-B2    17.0620 eV   72.67 nm  f=0.0163  <S**2>=0.000
       6 -> 15         0.10385
       7 -> 21         0.62772
       8 -> 20        -0.20351
      11 -> 24         0.10588

 Excited State  67:      Singlet-A1    17.3291 eV   71.55 nm  f=0.0803  <S**2>=0.000
       6 -> 14         0.55583
       8 -> 22         0.28440
       9 -> 23        -0.28321

 Excited State  68:      Singlet-B1    17.5538 eV   70.63 nm  f=0.1071  <S**2>=0.000
       7 -> 22         0.65874
      10 -> 23        -0.21347

 Excited State  69:      Singlet-B2    18.0777 eV   68.58 nm  f=0.0142  <S**2>=0.000
       8 -> 23         0.68938

 Excited State  70:      Singlet-A1    18.1712 eV   68.23 nm  f=0.0727  <S**2>=0.000
       6 -> 14         0.40388
       7 -> 19         0.14080
       8 -> 22        -0.32127
       9 -> 23         0.37780
      13 -> 25         0.17789

 Excited State  71:      Singlet-A2    18.5262 eV   66.92 nm  f=0.0000  <S**2>=0.000
       7 -> 23         0.69161

 Excited State  72:      Singlet-B1    18.5360 eV   66.89 nm  f=0.0011  <S**2>=0.000
       6 -> 16         0.69169

 Excited State  73:      Singlet-A1    18.8031 eV   65.94 nm  f=0.0001  <S**2>=0.000
       6 -> 17         0.66957
       6 -> 18        -0.14906

 Excited State  74:      Singlet-B2    18.9998 eV   65.26 nm  f=0.0043  <S**2>=0.000
       5 -> 14        -0.11157
       6 -> 15         0.64771
      11 -> 24        -0.20809

 Excited State  75:      Singlet-B1    19.1327 eV   64.80 nm  f=0.0333  <S**2>=0.000
      12 -> 25        -0.19506
      13 -> 24         0.66683

 Excited State  76:      Singlet-A1    19.2998 eV   64.24 nm  f=0.0136  <S**2>=0.000
       6 -> 18         0.13476
      12 -> 24         0.66689
      13 -> 25        -0.12318

 Excited State  77:      Singlet-A1    19.7025 eV   62.93 nm  f=0.0040  <S**2>=0.000
       6 -> 17         0.12340
       6 -> 18         0.64428
      12 -> 24        -0.10828
      13 -> 25         0.15513

 Excited State  78:      Singlet-A2    19.7141 eV   62.89 nm  f=0.0000  <S**2>=0.000
       6 -> 21        -0.19604
      11 -> 25         0.51232
      13 -> 26        -0.42138

 Excited State  79:      Singlet-B2    19.7303 eV   62.84 nm  f=0.0585  <S**2>=0.000
       6 -> 15         0.15786
       6 -> 20        -0.18041
       9 -> 24        -0.18534
      11 -> 24         0.46386
      12 -> 26         0.41106

 Excited State  80:      Singlet-A2    19.7518 eV   62.77 nm  f=0.0000  <S**2>=0.000
      11 -> 25         0.45412
      13 -> 26         0.51864

 Excited State  81:      Singlet-B1    19.9388 eV   62.18 nm  f=0.0334  <S**2>=0.000
       6 -> 19         0.67943
      12 -> 25         0.12162

 Excited State  82:      Singlet-B2    20.1001 eV   61.68 nm  f=0.0019  <S**2>=0.000
       5 -> 14         0.29092
       5 -> 17         0.14045
       6 -> 20         0.58379
      12 -> 26         0.15815

 Excited State  83:      Singlet-B2    20.1365 eV   61.57 nm  f=0.0163  <S**2>=0.000
       5 -> 14         0.54042
       6 -> 15         0.12475
       6 -> 20        -0.17710
      11 -> 24         0.11149
      11 -> 28        -0.12218
      12 -> 26        -0.33819

 Excited State  84:      Singlet-A2    20.1791 eV   61.44 nm  f=0.0000  <S**2>=0.000
       5 -> 16        -0.18077
       6 -> 21         0.61294
      10 -> 24         0.10413
      12 -> 27         0.16849
      13 -> 26        -0.17369

 Excited State  85:      Singlet-A1    20.3205 eV   61.01 nm  f=0.0004  <S**2>=0.000
      11 -> 26         0.58510
      12 -> 28         0.35773

 Excited State  86:      Singlet-B1    20.3302 eV   60.99 nm  f=0.1106  <S**2>=0.000
       6 -> 19        -0.11992
      10 -> 26         0.11680
      12 -> 25         0.57063
      13 -> 24         0.17202
      13 -> 28        -0.30431

 Excited State  87:      Singlet-B2    20.3941 eV   60.79 nm  f=0.0527  <S**2>=0.000
       5 -> 14        -0.21672
       6 -> 20         0.19371
      10 -> 25        -0.10524
      11 -> 24         0.29735
      11 -> 28        -0.17639
      12 -> 26        -0.27988
      13 -> 27         0.41498

 Excited State  88:      Singlet-A2    20.4150 eV   60.73 nm  f=0.0000  <S**2>=0.000
       6 -> 21        -0.16861
       9 -> 25        -0.16167
      10 -> 24         0.57058
      12 -> 27         0.31981

 Excited State  89:      Singlet-B1    20.4418 eV   60.65 nm  f=0.0279  <S**2>=0.000
      10 -> 26         0.23396
      11 -> 27        -0.32114
      12 -> 25         0.20441
      13 -> 28         0.52912

 Excited State  90:      Singlet-A1    20.5556 eV   60.32 nm  f=0.4411  <S**2>=0.000
       5 -> 15        -0.15176
       9 -> 23        -0.12417
       9 -> 26         0.14004
      12 -> 24         0.13190
      12 -> 28        -0.15966
      13 -> 25         0.59234

 Excited State  91:      Singlet-B1    20.7143 eV   59.85 nm  f=0.0048  <S**2>=0.000
       8 -> 25         0.11653
      10 -> 26         0.10616
      11 -> 27         0.60075
      12 -> 25         0.12860
      13 -> 28         0.28000

 Excited State  92:      Singlet-B2    20.8756 eV   59.39 nm  f=0.0076  <S**2>=0.000
       5 -> 14         0.15172
       9 -> 24         0.18345
      11 -> 28         0.47177
      13 -> 27         0.42375

 Excited State  93:      Singlet-A2    20.9507 eV   59.18 nm  f=0.0000  <S**2>=0.000
       5 -> 16         0.17630
      10 -> 24        -0.33954
      12 -> 27         0.56110

 Excited State  94:      Singlet-B2    21.0525 eV   58.89 nm  f=0.0002  <S**2>=0.000
       9 -> 24         0.53823
      10 -> 25        -0.14059
      11 -> 28        -0.32936
      12 -> 26         0.17947

 Excited State  95:      Singlet-A1    21.0539 eV   58.89 nm  f=0.0338  <S**2>=0.000
       6 -> 22         0.62723
      11 -> 26        -0.14634
      12 -> 28         0.18227
      13 -> 25         0.10267

 Excited State  96:      Singlet-B2    21.3657 eV   58.03 nm  f=0.2839  <S**2>=0.000
       6 -> 23        -0.10559
       9 -> 24        -0.25850
      10 -> 25         0.30355
      11 -> 24        -0.24076
      11 -> 28        -0.30493
      12 -> 26         0.16565
      13 -> 27         0.31046

 Excited State  97:      Singlet-A2    21.4355 eV   57.84 nm  f=0.0000  <S**2>=0.000
       5 -> 16         0.64734
       6 -> 21         0.20183
      12 -> 27        -0.12410

 Excited State  98:      Singlet-B2    21.4774 eV   57.73 nm  f=0.0800  <S**2>=0.000
       5 -> 17         0.61919
       6 -> 20        -0.16075
      10 -> 25        -0.21283

 Excited State  99:      Singlet-A1    21.5505 eV   57.53 nm  f=0.0642  <S**2>=0.000
       4 -> 14         0.13192
       5 -> 15         0.33092
       6 -> 22        -0.24991
       8 -> 24         0.11417
       9 -> 26         0.14596
      11 -> 26        -0.22090
      12 -> 28         0.39325
      13 -> 30        -0.10045

 Excited State 100:      Singlet-B2    21.7122 eV   57.10 nm  f=0.2600  <S**2>=0.000
       5 -> 17         0.23413
       5 -> 18        -0.14741
       6 -> 23        -0.18332
       9 -> 24         0.21404
      10 -> 25         0.51525
      11 -> 24         0.14415
      13 -> 27        -0.10016

 Excited State 101:      Singlet-A1    21.7343 eV   57.05 nm  f=0.0099  <S**2>=0.000
       4 -> 14         0.14395
       5 -> 15         0.52369
       9 -> 26         0.10523
      11 -> 26         0.16762
      12 -> 28        -0.32998

 Excited State 102:      Singlet-B1    21.7428 eV   57.02 nm  f=0.1968  <S**2>=0.000
       9 -> 27        -0.19305
      10 -> 26         0.60711
      12 -> 25        -0.19331
      13 -> 28        -0.18801

 Excited State 103:      Singlet-A2    21.8809 eV   56.66 nm  f=0.0000  <S**2>=0.000
       7 -> 26        -0.12957

 The electronic state is 1-A1.
 Alpha  occ. eigenvalues --  -10.29089 -10.28490 -10.28488  -0.87102  -0.76716
 Alpha  occ. eigenvalues --   -0.66801  -0.54156  -0.52123  -0.48111  -0.46062
 Alpha  occ. eigenvalues --   -0.41886  -0.41578  -0.40411
 Alpha virt. eigenvalues --    0.14005   0.18871   0.18887   0.18930   0.21883
 Alpha virt. eigenvalues --    0.23914   0.24290   0.24861   0.29440   0.33638
 Alpha virt. eigenvalues --    0.48367   0.50624   0.51652   0.53409   0.54421

 Mulliken charges:
               1
     1  C   -0.079303
     2  C   -0.110242
     3  C   -0.079303
     4  H    0.037505
     5  H    0.032308
     6  H    0.032308
     7  H    0.032303
     8  H    0.032303
     9  H    0.032308
    10  H    0.037505
    11  H    0.032308
 Sum of Mulliken charges =  -0.00000

 Dipole moment (field-independent basis, Debye):
    X=              0.0000    Y=             -0.0000    Z=              0.0529  Tot=              0.0529
 Quadrupole moment (field-independent basis, Debye-Ang):
   XX=            -21.2899   YY=            -21.9337   ZZ=            -21.6679
   XY=              0.0000   XZ=             -0.0000   YZ=             -0.0000

 Normal termination of Gaussian 16 at Sat Aug 14 23:30:14 2021.
