 Gaussian 16, Revision C.01,
 Gaussian 16:  EM64L-G16RevC.01  3-Jul-2019

 ----------------------------------------------------------------------
 #P TD(Nstates=10000) wB97XD/def2SVP SCF(maxcycles=100) Int(Grid=ultraf
 ine)
 ----------------------------------------------------------------------

 ---------------------
 xGDB7_00001_tier4.com
 ---------------------
 Symbolic Z-matrix:
 Charge =  0 Multiplicity = 1

                         Standard orientation:
 ---------------------------------------------------------------------
 Center     Atomic      Atomic             Coordinates (Angstroms)
 Number     Number       Type             X           Y           Z
 ---------------------------------------------------------------------
      1          7           0        1.112891   -0.176405   -0.045235
      2          6           0       -0.122478    0.417990    0.001125
      3          7           0       -1.274011   -0.120898    0.007267
      4          1           0        1.935384    0.373535    0.156455
      5          1           0        1.193153   -1.174898    0.097903
      6          1           0       -0.062395    1.518676    0.003527
      7          1           0       -1.203435   -1.144133    0.001137
 ---------------------------------------------------------------------

 SCF Done:  E(RwB97XD) =  -149.841562918     A.U. after   15 cycles

 Excitation energies and oscillator strengths:

 Excited State   1:      Singlet-A      6.6192 eV  187.31 nm  f=0.0120  <S**2>=0.000
      11 -> 13         0.66222
      11 -> 14        -0.19235
      12 -> 13        -0.15160
 This state for optimization and/or second-order correction.
 Total Energy, E(TD-HF/TD-DFT) =  -149.598310706
 Copying the excited state density for this state as the 1-particle RhoCI density.

 Excited State   2:      Singlet-A      7.3173 eV  169.44 nm  f=0.0115  <S**2>=0.000
      12 -> 13         0.35556
      12 -> 14         0.58660
      12 -> 15         0.10239

 Excited State   3:      Singlet-A      7.8612 eV  157.72 nm  f=0.1561  <S**2>=0.000
      11 -> 14        -0.31342
      12 -> 13         0.52009
      12 -> 14        -0.33582

 Excited State   4:      Singlet-A      7.9364 eV  156.22 nm  f=0.0039  <S**2>=0.000
      12 -> 15         0.68965

 Excited State   5:      Singlet-A      8.4918 eV  146.00 nm  f=0.1123  <S**2>=0.000
      11 -> 13         0.14370
      11 -> 14         0.37293
      11 -> 15         0.49507
      11 -> 16        -0.23631
      12 -> 13         0.14426

 Excited State   6:      Singlet-A      9.1102 eV  136.09 nm  f=0.0805  <S**2>=0.000
      11 -> 14         0.23197
      11 -> 15        -0.28556
      12 -> 13         0.10256
      12 -> 16         0.55915

 Excited State   7:      Singlet-A      9.1660 eV  135.27 nm  f=0.1994  <S**2>=0.000
      11 -> 13        -0.12808
      11 -> 14        -0.35937
      11 -> 15         0.36454
      12 -> 13        -0.15357
      12 -> 14         0.11316
      12 -> 16         0.39202

 Excited State   8:      Singlet-A      9.7726 eV  126.87 nm  f=0.0194  <S**2>=0.000
      11 -> 14         0.18491
      11 -> 15         0.14050
      11 -> 16         0.65763

 Excited State   9:      Singlet-A      9.9660 eV  124.41 nm  f=0.0033  <S**2>=0.000
      10 -> 15        -0.16039
      12 -> 16         0.10731
      12 -> 17         0.66402

 Excited State  10:      Singlet-A     10.5089 eV  117.98 nm  f=0.0005  <S**2>=0.000
       9 -> 13         0.66738
       9 -> 14        -0.19379
      12 -> 17        -0.10132

 Excited State  11:      Singlet-A     11.0046 eV  112.67 nm  f=0.0489  <S**2>=0.000
      10 -> 13         0.46326
      10 -> 14         0.13533
      11 -> 17         0.49422

 Excited State  12:      Singlet-A     11.1070 eV  111.63 nm  f=0.0293  <S**2>=0.000
      10 -> 13        -0.38175
      10 -> 14        -0.33328
      11 -> 17         0.46013

 Excited State  13:      Singlet-A     11.2873 eV  109.84 nm  f=0.0822  <S**2>=0.000
      10 -> 13        -0.32098
      10 -> 14         0.57853
      11 -> 17         0.14009

 Excited State  14:      Singlet-A     11.7337 eV  105.66 nm  f=0.0014  <S**2>=0.000
      10 -> 15         0.66876
      12 -> 17         0.16314
      12 -> 18        -0.13144

 Excited State  15:      Singlet-A     12.2642 eV  101.09 nm  f=0.0736  <S**2>=0.000
       9 -> 13         0.19064
       9 -> 14         0.65460

 Excited State  16:      Singlet-A     12.6578 eV   97.95 nm  f=0.0191  <S**2>=0.000
      10 -> 15         0.11308
      12 -> 18         0.67885

 Excited State  17:      Singlet-A     12.8217 eV   96.70 nm  f=0.3857  <S**2>=0.000
       9 -> 15         0.68675

 Excited State  18:      Singlet-A     13.0540 eV   94.98 nm  f=0.0068  <S**2>=0.000
       8 -> 13         0.13378
      10 -> 16         0.67985

 Excited State  19:      Singlet-A     13.3377 eV   92.96 nm  f=0.0041  <S**2>=0.000
       7 -> 13         0.15565
       8 -> 13         0.63817
       8 -> 14        -0.18174
      10 -> 16        -0.14598

 Excited State  20:      Singlet-A     13.5428 eV   91.55 nm  f=0.0804  <S**2>=0.000
      11 -> 18         0.68165
      11 -> 19        -0.10377

 Excited State  21:      Singlet-A     13.7555 eV   90.13 nm  f=0.0032  <S**2>=0.000
      10 -> 17         0.69240

 Excited State  22:      Singlet-A     13.8973 eV   89.21 nm  f=0.1388  <S**2>=0.000
       8 -> 14        -0.17528
       8 -> 15        -0.11585
       9 -> 16         0.65725

 Excited State  23:      Singlet-A     14.4207 eV   85.98 nm  f=0.0068  <S**2>=0.000
      12 -> 19         0.69109

 Excited State  24:      Singlet-A     14.6745 eV   84.49 nm  f=0.0023  <S**2>=0.000
       7 -> 13         0.65350
       7 -> 14        -0.10256
       8 -> 13        -0.15532
       9 -> 17        -0.15330

 Excited State  25:      Singlet-A     14.7796 eV   83.89 nm  f=0.1333  <S**2>=0.000
       7 -> 13         0.12570
       7 -> 14        -0.12157
       8 -> 14        -0.13009
       8 -> 15         0.12979
       9 -> 17         0.64400

 Excited State  26:      Singlet-A     14.9926 eV   82.70 nm  f=0.0627  <S**2>=0.000
       7 -> 14        -0.21319
       8 -> 13         0.13977
       8 -> 14         0.56151
       9 -> 16         0.19894
      11 -> 19        -0.20684

 Excited State  27:      Singlet-A     15.2977 eV   81.05 nm  f=0.1575  <S**2>=0.000
       7 -> 15         0.10198
       8 -> 14         0.18042
       8 -> 15        -0.16944
      11 -> 19         0.62137

 Excited State  28:      Singlet-A     15.4274 eV   80.37 nm  f=0.1487  <S**2>=0.000
       7 -> 13         0.14207
       7 -> 14         0.63151
       8 -> 14         0.18671
       9 -> 17         0.12345

 Excited State  29:      Singlet-A     15.6597 eV   79.17 nm  f=0.0605  <S**2>=0.000
       7 -> 15         0.13411
       8 -> 15         0.63345
       9 -> 17        -0.13815
      11 -> 19         0.16789

 Excited State  30:      Singlet-A     16.3469 eV   75.85 nm  f=0.0714  <S**2>=0.000
       6 -> 13         0.32368
       7 -> 15         0.17777
      10 -> 18         0.56664
      12 -> 20        -0.13657

 Excited State  31:      Singlet-A     16.4233 eV   75.49 nm  f=0.0678  <S**2>=0.000
       7 -> 15         0.62139
       8 -> 15        -0.10536
      10 -> 18        -0.17652
      11 -> 19        -0.11499

 Excited State  32:      Singlet-A     16.8679 eV   73.50 nm  f=0.1141  <S**2>=0.000
       6 -> 13         0.18284
       7 -> 15        -0.10207
       8 -> 16         0.42155
      12 -> 20         0.49864

 Excited State  33:      Singlet-A     16.8960 eV   73.38 nm  f=0.1943  <S**2>=0.000
       6 -> 13        -0.10559
       6 -> 14         0.12528
       8 -> 16         0.49878
       9 -> 18         0.12996
      12 -> 20        -0.42296

 Excited State  34:      Singlet-A     17.4686 eV   70.98 nm  f=0.0897  <S**2>=0.000
       6 -> 13         0.20246
       8 -> 16        -0.15242
       9 -> 18         0.61315
      10 -> 18        -0.12263
      11 -> 20         0.13156

 Excited State  35:      Singlet-A     17.4919 eV   70.88 nm  f=0.1977  <S**2>=0.000
       6 -> 13         0.47626
       8 -> 17         0.26391
       9 -> 18        -0.21125
      10 -> 18        -0.30458
      11 -> 20        -0.12878
      12 -> 20        -0.14736

 Excited State  36:      Singlet-A     17.5505 eV   70.64 nm  f=0.0779  <S**2>=0.000
       6 -> 13        -0.20589
       6 -> 14         0.19587
       6 -> 15        -0.13247
       7 -> 16         0.10647
       7 -> 17         0.19323
       8 -> 17         0.52340
      10 -> 18         0.14494
      11 -> 20        -0.13926

 Excited State  37:      Singlet-A     17.8261 eV   69.55 nm  f=0.0961  <S**2>=0.000
       6 -> 14         0.11223
       7 -> 16         0.49746
       9 -> 18        -0.16757
      11 -> 20         0.42396

 Excited State  38:      Singlet-A     17.9762 eV   68.97 nm  f=0.0119  <S**2>=0.000
      10 -> 19         0.67363
      12 -> 22        -0.12168

 Excited State  39:      Singlet-A     18.0626 eV   68.64 nm  f=0.0694  <S**2>=0.000
       6 -> 14        -0.26826
       7 -> 16         0.44848
       9 -> 19         0.12628
      11 -> 20        -0.40848

 Excited State  40:      Singlet-A     18.1010 eV   68.50 nm  f=0.0644  <S**2>=0.000
       6 -> 14         0.50569
       7 -> 17        -0.38569
      11 -> 20        -0.18887

 Excited State  41:      Singlet-A     18.3527 eV   67.56 nm  f=0.0435  <S**2>=0.000
       6 -> 14         0.24050
       6 -> 15        -0.19052
       7 -> 17         0.47594
       8 -> 17        -0.32596
      11 -> 20        -0.16244

 Excited State  42:      Singlet-A     18.6407 eV   66.51 nm  f=0.0626  <S**2>=0.000
       6 -> 14         0.12453
       6 -> 15         0.60719
       7 -> 17         0.22952
       9 -> 19         0.11214
      12 -> 21        -0.11554

 Excited State  43:      Singlet-A     19.0276 eV   65.16 nm  f=0.0352  <S**2>=0.000
       6 -> 15         0.17501
       9 -> 19        -0.17253
      12 -> 21         0.61126
      12 -> 22        -0.22119

 Excited State  44:      Singlet-A     19.2475 eV   64.42 nm  f=0.1955  <S**2>=0.000
       7 -> 18         0.12060
       8 -> 18         0.12232
       9 -> 19         0.61227
      11 -> 20         0.10635
      12 -> 21         0.10574
      12 -> 22        -0.19775

 Excited State  45:      Singlet-A     19.2920 eV   64.27 nm  f=0.0145  <S**2>=0.000
       9 -> 19         0.12602
      10 -> 19         0.12832
      12 -> 21         0.26350
      12 -> 22         0.60562

 Excited State  46:      Singlet-A     19.5625 eV   63.38 nm  f=0.0044  <S**2>=0.000
      11 -> 21         0.63968
      11 -> 22        -0.29098

 Excited State  47:      Singlet-A     20.0786 eV   61.75 nm  f=0.0165  <S**2>=0.000
       6 -> 16         0.63301
       6 -> 17        -0.11799
       8 -> 18        -0.22667

 Excited State  48:      Singlet-A     20.2853 eV   61.12 nm  f=0.0384  <S**2>=0.000
       6 -> 16         0.16631
       6 -> 17         0.24982
       8 -> 18         0.48986
      10 -> 20         0.21213
      11 -> 21        -0.10839
      11 -> 22        -0.24049
      12 -> 23         0.15944

 Excited State  49:      Singlet-A     20.3319 eV   60.98 nm  f=0.0470  <S**2>=0.000
       6 -> 16        -0.14294
       8 -> 18        -0.12650
      10 -> 20         0.47356
      11 -> 21         0.11080
      11 -> 22         0.23163
      12 -> 23         0.36780
      12 -> 24         0.10465

 Excited State  50:      Singlet-A     20.5481 eV   60.34 nm  f=0.1069  <S**2>=0.000
       6 -> 16         0.15951
       6 -> 17         0.24866
       8 -> 18         0.18177
       8 -> 19         0.12180
      10 -> 20        -0.14203
      11 -> 21         0.22185
      11 -> 22         0.48787
      11 -> 23        -0.10010

 Excited State  51:      Singlet-A     20.6061 eV   60.17 nm  f=0.0985  <S**2>=0.000
       6 -> 17         0.55840
       7 -> 18         0.15256
       8 -> 18        -0.32568
      11 -> 22        -0.12297

 Excited State  52:      Singlet-A     20.9130 eV   59.29 nm  f=0.2674  <S**2>=0.000
      10 -> 20        -0.42198
      12 -> 23         0.52640
      12 -> 24         0.11789

 Excited State  53:      Singlet-A     21.3250 eV   58.14 nm  f=0.1276  <S**2>=0.000
       7 -> 18         0.55229
       8 -> 19        -0.17702
       9 -> 20        -0.25754
      11 -> 24         0.10392
      12 -> 24        -0.18460

 Excited State  54:      Singlet-A     21.4360 eV   57.84 nm  f=0.0327  <S**2>=0.000
       7 -> 18         0.14776
      12 -> 23        -0.14598
      12 -> 24         0.63386

 Excited State  55:      Singlet-A     21.6660 eV   57.23 nm  f=0.0080  <S**2>=0.000
       7 -> 18         0.23012
       8 -> 19        -0.13232
       9 -> 20         0.59608
      10 -> 21        -0.16053

 Excited State  56:      Singlet-A     21.9288 eV   56.54 nm  f=0.0130  <S**2>=0.000
      10 -> 21         0.10637
      11 -> 22         0.10324
      11 -> 23         0.64024
      11 -> 24         0.16111

 Excited State  57:      Singlet-A     22.1481 eV   55.98 nm  f=0.0152  <S**2>=0.000
       7 -> 18         0.12525
       8 -> 19         0.47405
       9 -> 20         0.12689
      11 -> 23        -0.18084
      11 -> 24         0.35068
      11 -> 25         0.19797

 Excited State  58:      Singlet-A     22.6675 eV   54.70 nm  f=0.1541  <S**2>=0.000
       5 -> 13         0.24317
       7 -> 18         0.13100
       8 -> 19         0.32221
       9 -> 22        -0.11947
      10 -> 21        -0.25605
      11 -> 23         0.12569
      11 -> 24        -0.30230
      11 -> 25        -0.10531
      12 -> 25        -0.22171

 Excited State  59:      Singlet-A     22.6793 eV   54.67 nm  f=0.0777  <S**2>=0.000
       5 -> 13         0.39726
       8 -> 19        -0.19519
      10 -> 22        -0.23271
      11 -> 24         0.18195
      12 -> 25        -0.37092
      12 -> 26        -0.12454

 Excited State  60:      Singlet-A     22.8486 eV   54.26 nm  f=0.0103  <S**2>=0.000
       7 -> 19         0.63821
      10 -> 22         0.18417
      12 -> 25        -0.11453

 Excited State  61:      Singlet-A     22.9416 eV   54.04 nm  f=0.0330  <S**2>=0.000
       7 -> 19        -0.18155
      10 -> 21         0.32946
      10 -> 22         0.49695
      12 -> 24         0.10107
      12 -> 25        -0.24052

 Excited State  62:      Singlet-A     23.0436 eV   53.80 nm  f=0.0111  <S**2>=0.000
       5 -> 13         0.27456
       6 -> 18        -0.10594
       8 -> 19         0.11934
       9 -> 21         0.26568
       9 -> 22        -0.14122
      10 -> 21         0.34342
      11 -> 24        -0.15259
      12 -> 25         0.29811

 Excited State  63:      Singlet-A     23.1130 eV   53.64 nm  f=0.0113  <S**2>=0.000
       5 -> 13         0.28169
       6 -> 18         0.12577
       8 -> 19        -0.10591
       9 -> 21         0.20315
      10 -> 21        -0.25135
      10 -> 22         0.29625
      11 -> 24         0.19191
      12 -> 25         0.27883

 Excited State  64:      Singlet-A     23.2244 eV   53.39 nm  f=0.0738  <S**2>=0.000
       5 -> 13        -0.23635
       6 -> 18         0.22186
       9 -> 21         0.49002
       9 -> 22        -0.25984
      11 -> 25         0.10107
      12 -> 25        -0.20587

 Excited State  65:      Singlet-A     23.3124 eV   53.18 nm  f=0.0548  <S**2>=0.000
       6 -> 18         0.45059
       9 -> 21        -0.22006
      10 -> 21         0.19617
      11 -> 24        -0.15014
      11 -> 25         0.34777

 Excited State  66:      Singlet-A     23.4458 eV   52.88 nm  f=0.0166  <S**2>=0.000
       6 -> 18        -0.41153
       9 -> 22        -0.12211
      11 -> 24        -0.18432
      11 -> 25         0.48248

 Excited State  67:      Singlet-A     23.9327 eV   51.81 nm  f=0.0360  <S**2>=0.000
       5 -> 13         0.13795
      10 -> 23         0.15433
      12 -> 26         0.64801

 Excited State  68:      Singlet-A     24.2206 eV   51.19 nm  f=0.0784  <S**2>=0.000
       5 -> 13         0.11247
       5 -> 14         0.50798
       8 -> 20         0.32530
      10 -> 23         0.10189
      11 -> 26         0.21691

 Excited State  69:      Singlet-A     24.3962 eV   50.82 nm  f=0.0984  <S**2>=0.000
       5 -> 14        -0.31215
       5 -> 15        -0.12047
       8 -> 20         0.34010
      10 -> 23        -0.22896
      11 -> 25        -0.13254
      11 -> 26         0.38220

 Excited State  70:      Singlet-A     24.4297 eV   50.75 nm  f=0.0088  <S**2>=0.000
       4 -> 13         0.10834
       5 -> 14        -0.18959
       5 -> 15        -0.12362
      10 -> 23         0.59140
      11 -> 26         0.11392
      12 -> 26        -0.13250

 Excited State  71:      Singlet-A     24.5155 eV   50.57 nm  f=0.0516  <S**2>=0.000
       8 -> 20         0.37740
       9 -> 21         0.20680
       9 -> 22         0.42837
      11 -> 25         0.12424
      11 -> 26        -0.23745

 Excited State  72:      Singlet-A     24.7916 eV   50.01 nm  f=0.0008  <S**2>=0.000
       5 -> 14        -0.10659
       5 -> 15         0.64298
      11 -> 26         0.13760

 Excited State  73:      Singlet-A     24.8129 eV   49.97 nm  f=0.1272  <S**2>=0.000
       5 -> 14         0.10594
       6 -> 19         0.23621
       7 -> 20         0.23804
       8 -> 20        -0.29075
       9 -> 21         0.13019
       9 -> 22         0.29051
      11 -> 24        -0.10968
      11 -> 26         0.31969
      12 -> 31         0.10831

 Excited State  74:      Singlet-A     25.0487 eV   49.50 nm  f=0.0085  <S**2>=0.000
       6 -> 19        -0.14473
      10 -> 23        -0.11284
      10 -> 24         0.46206
      12 -> 27         0.45953

 Excited State  75:      Singlet-A     25.1794 eV   49.24 nm  f=0.0888  <S**2>=0.000
       5 -> 15         0.13575
       6 -> 19         0.59281
       9 -> 22        -0.17260
      11 -> 26        -0.12464
      12 -> 27         0.12672

 Excited State  76:      Singlet-A     25.4608 eV   48.70 nm  f=0.0062  <S**2>=0.000
       4 -> 13         0.11009
      10 -> 24         0.46970
      10 -> 25         0.14959
      10 -> 26         0.11899
      12 -> 27        -0.44428

 Excited State  77:      Singlet-A     25.5359 eV   48.55 nm  f=0.3004  <S**2>=0.000
       6 -> 20        -0.11760
       7 -> 20         0.57399
       9 -> 22        -0.10137
       9 -> 24        -0.20877
      11 -> 26        -0.13118

 Excited State  78:      Singlet-A     25.7056 eV   48.23 nm  f=0.0045  <S**2>=0.000
       4 -> 13         0.58368
       5 -> 16        -0.27944
       9 -> 23         0.11347
      12 -> 27         0.11263
      12 -> 28        -0.10270

 Excited State  79:      Singlet-A     25.8656 eV   47.93 nm  f=0.0016  <S**2>=0.000
       4 -> 13         0.28644
       4 -> 14        -0.24540
       5 -> 16         0.52326
       9 -> 23        -0.11465
      12 -> 28         0.13430

 Excited State  80:      Singlet-A     25.9154 eV   47.84 nm  f=0.2168  <S**2>=0.000
       5 -> 16         0.17398
       8 -> 22        -0.13883
       9 -> 23         0.63489

 Excited State  81:      Singlet-A     26.2139 eV   47.30 nm  f=0.0117  <S**2>=0.000
       7 -> 21         0.15669
       8 -> 21         0.60967
       8 -> 22        -0.26929

 Excited State  82:      Singlet-A     26.4521 eV   46.87 nm  f=0.0651  <S**2>=0.000
       5 -> 16        -0.16882
       6 -> 20        -0.13928
       7 -> 20         0.14046
       8 -> 21        -0.10468
       9 -> 24         0.51700
       9 -> 25         0.12728
      11 -> 27        -0.20542

 Excited State  83:      Singlet-A     26.5845 eV   46.64 nm  f=0.0099  <S**2>=0.000
       4 -> 13        -0.10490
       4 -> 14        -0.36300
       5 -> 16        -0.15991
       5 -> 17         0.16535
      10 -> 25         0.41461
      11 -> 27         0.10274
      12 -> 28         0.23201

 Excited State  84:      Singlet-A     26.6159 eV   46.58 nm  f=0.0035  <S**2>=0.000
       4 -> 14         0.33456
       5 -> 16         0.14991
       5 -> 17        -0.15918
      10 -> 25         0.50154
      12 -> 28        -0.16357

 Excited State  85:      Singlet-A     26.7466 eV   46.36 nm  f=0.0507  <S**2>=0.000
       4 -> 14         0.12627
       5 -> 17        -0.18064
       8 -> 21        -0.13156
       8 -> 22        -0.18212
       9 -> 24         0.10795
      11 -> 27         0.54849
      12 -> 28         0.13672

 Excited State  86:      Singlet-A     26.8284 eV   46.21 nm  f=0.0213  <S**2>=0.000
       4 -> 14         0.19762
       4 -> 15         0.25757
       5 -> 17         0.53184
       8 -> 22        -0.18087

 Excited State  87:      Singlet-A     26.9988 eV   45.92 nm  f=0.0266  <S**2>=0.000
       7 -> 21         0.12963
       8 -> 22         0.23696
      11 -> 28         0.47200
      11 -> 30        -0.11254
      11 -> 31        -0.37145

 Excited State  88:      Singlet-A     27.0859 eV   45.77 nm  f=0.0142  <S**2>=0.000
       6 -> 20        -0.35080
       8 -> 21         0.19974
       8 -> 22         0.40928
      11 -> 27         0.19240
      11 -> 28        -0.16070
      11 -> 31         0.12273

 Excited State  89:      Singlet-A     27.1884 eV   45.60 nm  f=0.0441  <S**2>=0.000
       4 -> 14        -0.22384
       9 -> 24         0.11569
      10 -> 26         0.11843
      11 -> 27         0.18155
      11 -> 30        -0.10966
      12 -> 28        -0.35287
      12 -> 29         0.37432
      12 -> 31         0.10274

 Excited State  90:      Singlet-A     27.2866 eV   45.44 nm  f=0.0569  <S**2>=0.000
       4 -> 14         0.15165
       9 -> 25        -0.13675
      10 -> 26         0.17140
      11 -> 27        -0.12270
      11 -> 28         0.11523
      12 -> 28         0.22508
      12 -> 29         0.50103

 Excited State  91:      Singlet-A     27.4077 eV   45.24 nm  f=0.0013  <S**2>=0.000
       7 -> 21         0.60264
       7 -> 22        -0.19827
       8 -> 21        -0.12040
      11 -> 28        -0.15715
      11 -> 31         0.13222

 Excited State  92:      Singlet-A     27.4566 eV   45.16 nm  f=0.0295  <S**2>=0.000
       4 -> 15         0.42097
       5 -> 17        -0.23063
       7 -> 22        -0.14478
       9 -> 24        -0.10400
       9 -> 25         0.36822
      11 -> 30         0.18083

 The electronic state is 1-A.
 Alpha  occ. eigenvalues --  -14.46389 -14.39799 -10.36202  -1.03157  -0.93326
 Alpha  occ. eigenvalues --   -0.70402  -0.62449  -0.59255  -0.48800  -0.45943
 Alpha  occ. eigenvalues --   -0.33867  -0.32037
 Alpha virt. eigenvalues --    0.11943   0.13516   0.15641   0.20467   0.22941
 Alpha virt. eigenvalues --    0.35665   0.40916   0.51438   0.58923   0.59201
 Alpha virt. eigenvalues --    0.63450   0.68237   0.72459   0.76607   0.82189

 Mulliken charges:
               1
     1  N   -0.194545
     2  C    0.012381
     3  N   -0.216856
     4  H    0.142032
     5  H    0.130747
     6  H    0.039108
     7  H    0.087134
 Sum of Mulliken charges =  -0.00000

 Dipole moment (field-independent basis, Debye):
    X=              3.5319    Y=             -0.8711    Z=              0.5283  Tot=              3.6759
 Quadrupole moment (field-independent basis, Debye-Ang):
   XX=            -19.8370   YY=            -14.3693   ZZ=            -20.0294
   XY=              1.2985   XZ=              1.0167   YZ=             -0.1380

 Normal termination of Gaussian 16 at Sat Aug 14 23:24:44 2021.
