 Gaussian 16, Revision C.01,
 Gaussian 16:  EM64L-G16RevC.01  3-Jul-2019

 ----------------------------------------------------------------------
 #P TD(Nstates=10000) wB97XD/def2SVP SCF(maxcycles=100) Int(Grid=ultraf
 ine)
 ----------------------------------------------------------------------

 ---------------------
 xGDB7_00001_tier4.com
 ---------------------
 Symbolic Z-matrix:
 Charge =  0 Multiplicity = 1

                         Standard orientation:
 ---------------------------------------------------------------------
 Center     Atomic      Atomic             Coordinates (Angstroms)
 Number     Number       Type             X           Y           Z
 ---------------------------------------------------------------------
      1          6           0        0.000000   -0.000000   -0.523169
      2          8           0        0.000000    0.000000    0.673082
      3          1           0        0.000000    0.943747   -1.122820
      4          1           0       -0.000000   -0.943747   -1.122820
 ---------------------------------------------------------------------

 SCF Done:  E(RwB97XD) =  -114.375871159     A.U. after   13 cycles

 Excitation energies and oscillator strengths:

 Excited State   1:      Singlet-A2     4.0966 eV  302.65 nm  f=0.0000  <S**2>=0.000
       8 ->  9         0.70658
 This state for optimization and/or second-order correction.
 Total Energy, E(TD-HF/TD-DFT) =  -114.225322598
 Copying the excited state density for this state as the 1-particle RhoCI density.

 Excited State   2:      Singlet-B2     8.8057 eV  140.80 nm  f=0.1746  <S**2>=0.000
       8 -> 10         0.70499

 Excited State   3:      Singlet-B1     9.3298 eV  132.89 nm  f=0.0012  <S**2>=0.000
       6 ->  9         0.70562

 Excited State   4:      Singlet-A1     9.9013 eV  125.22 nm  f=0.0155  <S**2>=0.000
       7 ->  9         0.56673
       8 -> 11         0.41093

 Excited State   5:      Singlet-A2    10.4444 eV  118.71 nm  f=0.0000  <S**2>=0.000
       5 ->  9         0.70543

 Excited State   6:      Singlet-A1    11.3912 eV  108.84 nm  f=0.4778  <S**2>=0.000
       7 ->  9        -0.39781
       8 -> 11         0.56901

 Excited State   7:      Singlet-B2    11.4045 eV  108.72 nm  f=0.0148  <S**2>=0.000
       8 -> 12         0.70540

 Excited State   8:      Singlet-B1    12.3824 eV  100.13 nm  f=0.0042  <S**2>=0.000
       7 -> 10         0.70034

 Excited State   9:      Singlet-A2    13.9831 eV   88.67 nm  f=0.0000  <S**2>=0.000
       7 -> 11         0.70465

 Excited State  10:      Singlet-A1    14.0577 eV   88.20 nm  f=0.0735  <S**2>=0.000
       6 -> 10         0.70160

 Excited State  11:      Singlet-B2    14.7543 eV   84.03 nm  f=0.2996  <S**2>=0.000
       5 -> 10         0.70296

 Excited State  12:      Singlet-B1    14.9308 eV   83.04 nm  f=0.0077  <S**2>=0.000
       4 ->  9         0.39142
       7 -> 12         0.58771

 Excited State  13:      Singlet-B2    15.5622 eV   79.67 nm  f=0.0681  <S**2>=0.000
       6 -> 11         0.70003

 Excited State  14:      Singlet-B1    15.8068 eV   78.44 nm  f=0.3686  <S**2>=0.000
       4 ->  9         0.58036
       7 -> 12        -0.39031

 Excited State  15:      Singlet-A1    16.6556 eV   74.44 nm  f=0.2381  <S**2>=0.000
       5 -> 11         0.18404
       6 -> 12         0.67283

 Excited State  16:      Singlet-A1    17.1135 eV   72.45 nm  f=0.0011  <S**2>=0.000
       4 -> 10         0.16820
       5 -> 11         0.65219
       6 -> 12        -0.16082

 Excited State  17:      Singlet-B2    17.8433 eV   69.49 nm  f=0.1502  <S**2>=0.000
       5 -> 12         0.70332

 Excited State  18:      Singlet-A2    18.4460 eV   67.21 nm  f=0.0000  <S**2>=0.000
       8 -> 14         0.70619

 Excited State  19:      Singlet-B2    18.9082 eV   65.57 nm  f=0.1247  <S**2>=0.000
       8 -> 13         0.69354
       8 -> 16         0.10166

 Excited State  20:      Singlet-A1    18.9369 eV   65.47 nm  f=0.0326  <S**2>=0.000
       4 -> 10         0.66230
       5 -> 11        -0.11535
       7 -> 14         0.15767

 Excited State  21:      Singlet-B2    20.1659 eV   61.48 nm  f=0.0225  <S**2>=0.000
       4 -> 11         0.69531

 Excited State  22:      Singlet-A1    21.6159 eV   57.36 nm  f=0.0004  <S**2>=0.000
       4 -> 12         0.55613
       8 -> 15        -0.41002

 Excited State  23:      Singlet-A1    22.0601 eV   56.20 nm  f=0.2963  <S**2>=0.000
       4 -> 12         0.38662
       8 -> 15         0.44316
       8 -> 17         0.35063

 Excited State  24:      Singlet-B1    22.2293 eV   55.78 nm  f=0.2760  <S**2>=0.000
       7 -> 13         0.70185

 Excited State  25:      Singlet-B2    22.6178 eV   54.82 nm  f=0.0012  <S**2>=0.000
       8 -> 16         0.65775
       8 -> 18        -0.20738

 Excited State  26:      Singlet-A1    22.6525 eV   54.73 nm  f=0.0019  <S**2>=0.000
       4 -> 10        -0.10353
       6 -> 18        -0.13077
       7 -> 14         0.63401
       8 -> 15        -0.14382
       8 -> 17         0.13974

 Excited State  27:      Singlet-A1    23.5475 eV   52.65 nm  f=0.3210  <S**2>=0.000
       4 -> 12        -0.16994
       7 -> 14        -0.16541
       8 -> 15        -0.27175
       8 -> 17         0.58614

 Excited State  28:      Singlet-B1    23.5754 eV   52.59 nm  f=0.0756  <S**2>=0.000
       6 -> 14         0.69973

 Excited State  29:      Singlet-A1    23.8002 eV   52.09 nm  f=0.0649  <S**2>=0.000
       6 -> 13         0.69642

 Excited State  30:      Singlet-B2    23.8178 eV   52.06 nm  f=0.0147  <S**2>=0.000
       5 -> 13        -0.22701
       8 -> 16         0.17162
       8 -> 18         0.64341

 Excited State  31:      Singlet-A2    24.1695 eV   51.30 nm  f=0.0000  <S**2>=0.000
       5 -> 14         0.57919
       7 -> 15         0.40021

 Excited State  32:      Singlet-A2    24.4852 eV   50.64 nm  f=0.0000  <S**2>=0.000
       5 -> 14        -0.40305
       7 -> 15         0.57834

 Excited State  33:      Singlet-B2    25.2180 eV   49.17 nm  f=0.0878  <S**2>=0.000
       5 -> 13         0.61236
       6 -> 15        -0.25523
       8 -> 16         0.12650
       8 -> 18         0.17248

 Excited State  34:      Singlet-B1    25.7466 eV   48.16 nm  f=0.0027  <S**2>=0.000
       3 ->  9         0.45541
       7 -> 16         0.47493
       7 -> 18        -0.24242

 Excited State  35:      Singlet-B2    26.2843 eV   47.17 nm  f=0.0418  <S**2>=0.000
       5 -> 13         0.19767
       6 -> 15         0.63978
       6 -> 17         0.16474

 Excited State  36:      Singlet-A2    26.4469 eV   46.88 nm  f=0.0000  <S**2>=0.000
       7 -> 17         0.70153

 Excited State  37:      Singlet-B1    26.5423 eV   46.71 nm  f=0.0092  <S**2>=0.000
       3 ->  9        -0.48346
       7 -> 16         0.50461

 Excited State  38:      Singlet-B1    27.3883 eV   45.27 nm  f=0.0000  <S**2>=0.000
       3 ->  9         0.21373
       4 -> 14         0.17250
       7 -> 16         0.12281
       7 -> 18         0.63676

 Excited State  39:      Singlet-A1    27.6156 eV   44.90 nm  f=0.0786  <S**2>=0.000
       5 -> 15         0.68246
       5 -> 17         0.11945

 Excited State  40:      Singlet-A1    27.9086 eV   44.43 nm  f=0.2211  <S**2>=0.000
       4 -> 13         0.30963
       6 -> 16         0.62022

 Excited State  41:      Singlet-B1    28.1257 eV   44.08 nm  f=0.0490  <S**2>=0.000
       4 -> 14         0.67987
       7 -> 18        -0.16350

 Excited State  42:      Singlet-B2    28.2848 eV   43.83 nm  f=0.0686  <S**2>=0.000
       5 -> 16        -0.14716
       6 -> 15        -0.11663
       6 -> 17         0.66878

 Excited State  43:      Singlet-A1    28.4696 eV   43.55 nm  f=0.0003  <S**2>=0.000
       4 -> 13         0.62036
       6 -> 16        -0.30607
       6 -> 18        -0.11675

 Excited State  44:      Singlet-B2    28.8046 eV   43.04 nm  f=0.1683  <S**2>=0.000
       4 -> 15         0.10247
       5 -> 16         0.64383
       5 -> 18        -0.14716
       6 -> 17         0.10118
       8 -> 19         0.16221

 Excited State  45:      Singlet-A1    29.3300 eV   42.27 nm  f=0.4166  <S**2>=0.000
       5 -> 15        -0.12428
       5 -> 17         0.54724
       6 -> 18        -0.39392

 Excited State  46:      Singlet-B2    29.3504 eV   42.24 nm  f=0.0001  <S**2>=0.000
       5 -> 16        -0.14668
       8 -> 19         0.67693

 Excited State  47:      Singlet-B2    29.8976 eV   41.47 nm  f=0.0070  <S**2>=0.000
       5 -> 16         0.13141
       5 -> 18         0.68445

 Excited State  48:      Singlet-A1    30.3580 eV   40.84 nm  f=0.0083  <S**2>=0.000
       3 -> 10         0.68971

 Excited State  49:      Singlet-A1    31.3004 eV   39.61 nm  f=0.2779  <S**2>=0.000
       3 -> 10         0.12082
       4 -> 16         0.43260
       5 -> 17        -0.27627
       6 -> 18        -0.43118

 Excited State  50:      Singlet-B2    31.4386 eV   39.44 nm  f=0.0071  <S**2>=0.000
       4 -> 15         0.67139
       4 -> 17         0.16171

 Excited State  51:      Singlet-A2    31.8384 eV   38.94 nm  f=0.0000  <S**2>=0.000
       8 -> 20         0.69993

 Excited State  52:      Singlet-B2    32.2028 eV   38.50 nm  f=0.0003  <S**2>=0.000
       3 -> 11         0.69520

 Excited State  53:      Singlet-B2    32.8393 eV   37.75 nm  f=0.0963  <S**2>=0.000
       4 -> 15        -0.14965
       4 -> 17         0.68398

 Excited State  54:      Singlet-B1    33.0913 eV   37.47 nm  f=0.0002  <S**2>=0.000
       7 -> 19         0.70477

 Excited State  55:      Singlet-A1    33.3857 eV   37.14 nm  f=0.0839  <S**2>=0.000
       3 -> 12         0.60174
       4 -> 16        -0.23944
       4 -> 18         0.17119
       6 -> 19         0.12947
       8 -> 21         0.13739

 Excited State  56:      Singlet-A1    33.6976 eV   36.79 nm  f=0.0826  <S**2>=0.000
       3 -> 12        -0.28290
       4 -> 16        -0.25553
       4 -> 18         0.52422
       5 -> 17        -0.13736
       6 -> 18        -0.17416

 Excited State  57:      Singlet-A1    34.5934 eV   35.84 nm  f=0.0167  <S**2>=0.000
       4 -> 18         0.13749
       6 -> 19         0.54060
       7 -> 20        -0.17543
       8 -> 21        -0.36772

 Excited State  58:      Singlet-A1    34.9497 eV   35.48 nm  f=0.0005  <S**2>=0.000
       3 -> 12         0.11692
       4 -> 16         0.32258
       4 -> 18         0.38633
       5 -> 17         0.16332
       6 -> 18         0.17491
       6 -> 19        -0.16099
       7 -> 20         0.32788
       8 -> 21        -0.14778

 Excited State  59:      Singlet-A1    35.5819 eV   34.84 nm  f=0.0160  <S**2>=0.000
       4 -> 16        -0.24093
       4 -> 18        -0.14411
       5 -> 17        -0.14334
       6 -> 18        -0.16860
       7 -> 20         0.43812
       8 -> 21        -0.39299

 Excited State  60:      Singlet-B1    36.6401 eV   33.84 nm  f=0.0472  <S**2>=0.000
       6 -> 20         0.70221

 Excited State  61:      Singlet-B2    36.7394 eV   33.75 nm  f=0.0033  <S**2>=0.000
       5 -> 19         0.69885

 Excited State  62:      Singlet-B1    37.7730 eV   32.82 nm  f=0.1207  <S**2>=0.000
       8 -> 22         0.70418

 Excited State  63:      Singlet-A2    38.6984 eV   32.04 nm  f=0.0000  <S**2>=0.000
       7 -> 21         0.70569

 Excited State  64:      Singlet-A2    39.1722 eV   31.65 nm  f=0.0000  <S**2>=0.000
       5 -> 20         0.69911

 Excited State  65:      Singlet-B2    39.8863 eV   31.08 nm  f=0.0495  <S**2>=0.000
       6 -> 21         0.66490
       8 -> 23        -0.22097

 Excited State  66:      Singlet-B1    40.0776 eV   30.94 nm  f=0.0246  <S**2>=0.000
       3 -> 14         0.70425

 Excited State  67:      Singlet-A1    40.2448 eV   30.81 nm  f=0.0022  <S**2>=0.000
       3 -> 13         0.64012
       4 -> 19        -0.19958
       6 -> 19        -0.10705
       8 -> 21        -0.10609

 Excited State  68:      Singlet-A1    40.4487 eV   30.65 nm  f=0.0067  <S**2>=0.000
       3 -> 13         0.29048
       4 -> 19         0.51882
       5 -> 21        -0.16174
       6 -> 19         0.21037
       7 -> 20         0.16043
       8 -> 21         0.19265

 Excited State  69:      Singlet-B2    40.6086 eV   30.53 nm  f=0.1804  <S**2>=0.000
       6 -> 21         0.20287
       7 -> 22        -0.18020
       8 -> 23         0.64819

 Excited State  70:      Singlet-A1    41.4932 eV   29.88 nm  f=0.1289  <S**2>=0.000
       4 -> 19         0.39138
       5 -> 21         0.47194
       6 -> 19        -0.11370
       7 -> 20        -0.18176
       8 -> 21        -0.24195

 Excited State  71:      Singlet-B2    41.6036 eV   29.80 nm  f=0.4274  <S**2>=0.000
       7 -> 22         0.67197
       8 -> 23         0.14903

 Excited State  72:      Singlet-B2    42.6143 eV   29.09 nm  f=0.1363  <S**2>=0.000
       3 -> 15         0.69167

 Excited State  73:      Singlet-A2    42.6183 eV   29.09 nm  f=0.0000  <S**2>=0.000
       6 -> 22         0.70532

 Excited State  74:      Singlet-B1    43.2062 eV   28.70 nm  f=0.0389  <S**2>=0.000
       4 -> 20         0.69204
       5 -> 22         0.11013

 Excited State  75:      Singlet-A1    43.7628 eV   28.33 nm  f=0.1818  <S**2>=0.000
       3 -> 16         0.32178
       3 -> 18        -0.26789
       4 -> 19        -0.14437
       5 -> 21         0.41037
       6 -> 19         0.18264
       7 -> 20         0.18722
       8 -> 21         0.15684

 Excited State  76:      Singlet-B1    43.9951 eV   28.18 nm  f=0.0020  <S**2>=0.000
       5 -> 22        -0.16760
       7 -> 23         0.68567

 Excited State  77:      Singlet-B1    44.4399 eV   27.90 nm  f=0.5809  <S**2>=0.000
       4 -> 20        -0.11974
       5 -> 22         0.66637
       7 -> 23         0.16149

 Excited State  78:      Singlet-A1    44.6208 eV   27.79 nm  f=0.0155  <S**2>=0.000
       3 -> 16         0.60796
       3 -> 18         0.28407
       5 -> 21        -0.14195

 Excited State  79:      Singlet-B2    44.6508 eV   27.77 nm  f=0.0007  <S**2>=0.000
       3 -> 17         0.69631

 Excited State  80:      Singlet-A2    44.6708 eV   27.76 nm  f=0.0000  <S**2>=0.000
       8 -> 24         0.70506

 Excited State  81:      Singlet-A1    45.7786 eV   27.08 nm  f=0.0021  <S**2>=0.000
       6 -> 23         0.68917

 Excited State  82:      Singlet-B2    46.2531 eV   26.81 nm  f=0.0186  <S**2>=0.000
       4 -> 21         0.68465
       5 -> 23         0.15600

 Excited State  83:      Singlet-B2    47.2057 eV   26.26 nm  f=0.0565  <S**2>=0.000
       4 -> 21        -0.15918
       5 -> 23         0.68537

 Excited State  84:      Singlet-A2    47.4895 eV   26.11 nm  f=0.0000  <S**2>=0.000
       4 -> 22         0.70476

 Excited State  85:      Singlet-A1    47.7176 eV   25.98 nm  f=0.0080  <S**2>=0.000
       3 -> 18         0.49461
       4 -> 23         0.14126
       5 -> 21         0.15316
       6 -> 19         0.10786
       7 -> 20         0.13963
       8 -> 21         0.11744
       8 -> 25         0.35159

 Excited State  86:      Singlet-A1    48.6118 eV   25.50 nm  f=0.1057  <S**2>=0.000
       3 -> 18        -0.20947
       4 -> 23        -0.11208
       7 -> 24        -0.34798
       8 -> 25         0.52814

 Excited State  87:      Singlet-A1    49.2062 eV   25.20 nm  f=0.0002  <S**2>=0.000
       3 -> 18        -0.10247
       4 -> 23        -0.17150
       7 -> 24         0.58465
       8 -> 25         0.29145

 Excited State  88:      Singlet-B2    49.9354 eV   24.83 nm  f=0.0113  <S**2>=0.000
       8 -> 26         0.70545

 Excited State  89:      Singlet-B1    50.4892 eV   24.56 nm  f=0.3692  <S**2>=0.000
       6 -> 24         0.69139

 Excited State  90:      Singlet-A2    50.6682 eV   24.47 nm  f=0.0000  <S**2>=0.000
       5 -> 24         0.70384

 Excited State  91:      Singlet-A1    51.3133 eV   24.16 nm  f=0.0271  <S**2>=0.000
       3 -> 19         0.69251

 Excited State  92:      Singlet-A1    51.5979 eV   24.03 nm  f=0.0058  <S**2>=0.000
       3 -> 18        -0.10673
       4 -> 23         0.64836

 Excited State  93:      Singlet-A2    51.9341 eV   23.87 nm  f=0.0000  <S**2>=0.000
       7 -> 25         0.70447

 Excited State  94:      Singlet-B2    53.5614 eV   23.15 nm  f=0.0020  <S**2>=0.000
       6 -> 25         0.70305

 Excited State  95:      Singlet-B1    53.6653 eV   23.10 nm  f=0.0538  <S**2>=0.000
       3 -> 20        -0.19628
       7 -> 26         0.66993

 Excited State  96:      Singlet-B1    53.7374 eV   23.07 nm  f=0.1122  <S**2>=0.000
       3 -> 20         0.66870
       4 -> 24         0.11297
       7 -> 26         0.19655

 Excited State  97:      Singlet-A1    54.3366 eV   22.82 nm  f=0.0771  <S**2>=0.000
       5 -> 25         0.70426

 Excited State  98:      Singlet-B1    54.8648 eV   22.60 nm  f=0.1304  <S**2>=0.000
       3 -> 20        -0.10634
       4 -> 24         0.69382

 Excited State  99:      Singlet-A1    55.0757 eV   22.51 nm  f=0.0607  <S**2>=0.000
       6 -> 26         0.63017
       8 -> 27         0.30611

 Excited State 100:      Singlet-B2    55.8836 eV   22.19 nm  f=0.0590  <S**2>=0.000
       8 -> 28         0.69963

 Excited State 101:      Singlet-A1    55.9561 eV   22.16 nm  f=0.0289  <S**2>=0.000
       6 -> 26        -0.26999
       8 -> 27         0.60638

 Excited State 102:      Singlet-B2    56.3447 eV   22.00 nm  f=0.1086  <S**2>=0.000
       5 -> 26         0.69024

 Excited State 103:      Singlet-B2    56.9283 eV   21.78 nm  f=0.0416  <S**2>=0.000
       3 -> 21         0.70244

 Excited State 104:      Singlet-A2    57.4792 eV   21.57 nm  f=0.0000  <S**2>=0.000
       8 -> 29         0.70060

 Excited State 105:      Singlet-B2    57.7848 eV   21.46 nm  f=0.0040  <S**2>=0.000
       4 -> 25         0.69686

 Excited State 106:      Singlet-A2    58.2653 eV   21.28 nm  f=0.0000  <S**2>=0.000
       7 -> 27         0.70330

 Excited State 107:      Singlet-A2    59.0850 eV   20.98 nm  f=0.0000  <S**2>=0.000
       3 -> 22         0.70476

 Excited State 108:      Singlet-A1    59.4134 eV   20.87 nm  f=0.0419  <S**2>=0.000
       4 -> 26         0.69458

 Excited State 109:      Singlet-B1    59.7412 eV   20.75 nm  f=0.1671  <S**2>=0.000
       6 -> 29         0.11667
       7 -> 28         0.68746

 Excited State 110:      Singlet-B2    60.4338 eV   20.52 nm  f=0.0714  <S**2>=0.000
       5 -> 28        -0.16124
       6 -> 27         0.67219
       7 -> 30         0.10108

 Excited State 111:      Singlet-A1    60.9262 eV   20.35 nm  f=0.0071  <S**2>=0.000
       5 -> 27         0.57716
       6 -> 28        -0.26928
       7 -> 29        -0.28082

 Excited State 112:      Singlet-A1    61.1270 eV   20.28 nm  f=0.0154  <S**2>=0.000
       3 -> 23        -0.10157
       6 -> 28         0.51934
       7 -> 29        -0.46310

 Excited State 113:      Singlet-B1    61.7005 eV   20.09 nm  f=0.1056  <S**2>=0.000
       6 -> 29         0.16296
       8 -> 30         0.68497

 Excited State 114:      Singlet-B2    61.8959 eV   20.03 nm  f=0.0040  <S**2>=0.000
       5 -> 28         0.67734
       6 -> 27         0.14382
       7 -> 30         0.12149

 Excited State 115:      Singlet-A1    63.0257 eV   19.67 nm  f=0.0049  <S**2>=0.000
       3 -> 23        -0.13640
       5 -> 27         0.38961
       6 -> 28         0.33887
       7 -> 29         0.43995

 Excited State 116:      Singlet-B1    63.3018 eV   19.59 nm  f=0.1665  <S**2>=0.000
       6 -> 29         0.66615
       7 -> 28        -0.10738
       8 -> 30        -0.15438

 Excited State 117:      Singlet-A2    63.4218 eV   19.55 nm  f=0.0000  <S**2>=0.000
       5 -> 29         0.70434

 Excited State 118:      Singlet-A1    64.5243 eV   19.22 nm  f=0.0024  <S**2>=0.000
       3 -> 23         0.65063
       6 -> 28         0.15850

 Excited State 119:      Singlet-B2    64.7483 eV   19.15 nm  f=0.0010  <S**2>=0.000
       4 -> 27         0.68602
       7 -> 30         0.15350

 Excited State 120:      Singlet-A1    65.7021 eV   18.87 nm  f=0.0264  <S**2>=0.000
       4 -> 28         0.69842

 Excited State 121:      Singlet-B2    66.0533 eV   18.77 nm  f=0.2057  <S**2>=0.000
       4 -> 27        -0.15550
       5 -> 28        -0.10083
       6 -> 27        -0.10273
       7 -> 30         0.66397

 Excited State 122:      Singlet-B1    66.6335 eV   18.61 nm  f=0.0035  <S**2>=0.000
       3 -> 24         0.67506
       5 -> 30        -0.20359

 Excited State 123:      Singlet-A2    66.6675 eV   18.60 nm  f=0.0000  <S**2>=0.000
       6 -> 30         0.70330

 Excited State 124:      Singlet-B1    67.0773 eV   18.48 nm  f=0.0005  <S**2>=0.000
       4 -> 29         0.69534

 Excited State 125:      Singlet-B1    68.3358 eV   18.14 nm  f=0.1513  <S**2>=0.000
       3 -> 24         0.18853
       4 -> 29         0.10446
       5 -> 30         0.65505

 Excited State 126:      Singlet-B2    70.0085 eV   17.71 nm  f=0.0093  <S**2>=0.000
       3 -> 25         0.70599

 Excited State 127:      Singlet-A2    71.1156 eV   17.43 nm  f=0.0000  <S**2>=0.000
       4 -> 30         0.70264

 Excited State 128:      Singlet-A1    71.6778 eV   17.30 nm  f=0.0132  <S**2>=0.000
       3 -> 26         0.70359

 Excited State 129:      Singlet-B2    73.5107 eV   16.87 nm  f=0.0675  <S**2>=0.000
       8 -> 31         0.69377

 Excited State 130:      Singlet-B2    75.9674 eV   16.32 nm  f=0.0876  <S**2>=0.000
       3 -> 27         0.11326
       7 -> 34         0.15185
       8 -> 32         0.66804

 Excited State 131:      Singlet-A1    76.6625 eV   16.17 nm  f=0.1049  <S**2>=0.000
       3 -> 28        -0.13567
       6 -> 31        -0.11738
       8 -> 33         0.67785

 Excited State 132:      Singlet-B1    76.9195 eV   16.12 nm  f=0.0266  <S**2>=0.000
       7 -> 31         0.61924
       8 -> 34         0.32637

 Excited State 133:      Singlet-B2    76.9424 eV   16.11 nm  f=0.0471  <S**2>=0.000
       3 -> 27         0.69193

 Excited State 134:      Singlet-A1    77.7912 eV   15.94 nm  f=0.0392  <S**2>=0.000
       3 -> 28         0.68144
       6 -> 31        -0.13468
       8 -> 33         0.10618

 Excited State 135:      Singlet-A1    78.2760 eV   15.84 nm  f=0.0059  <S**2>=0.000
       6 -> 31         0.63400
       6 -> 32        -0.27174
       8 -> 33         0.10497

 Excited State 136:      Singlet-B1    78.3585 eV   15.82 nm  f=0.0141  <S**2>=0.000
       7 -> 31         0.19731
       7 -> 32         0.61920
       8 -> 34        -0.27197

 Excited State 137:      Singlet-B2    79.4532 eV   15.60 nm  f=0.0207  <S**2>=0.000
       5 -> 31         0.69174

 Excited State 138:      Singlet-B1    79.5002 eV   15.60 nm  f=0.0039  <S**2>=0.000
       3 -> 29         0.65258
       7 -> 32        -0.15031
       8 -> 34        -0.21210

 Excited State 139:      Singlet-A2    79.5966 eV   15.58 nm  f=0.0000  <S**2>=0.000
       7 -> 33         0.70649

 Excited State 140:      Singlet-A1    80.7284 eV   15.36 nm  f=0.0028  <S**2>=0.000
       5 -> 33        -0.12870
       6 -> 31         0.23944
       6 -> 32         0.62919

 Excited State 141:      Singlet-B2    81.1397 eV   15.28 nm  f=0.0026  <S**2>=0.000
       6 -> 33         0.61579
       7 -> 34        -0.33137

 Excited State 142:      Singlet-B1    81.2184 eV   15.27 nm  f=0.7704  <S**2>=0.000
       3 -> 29         0.26147
       7 -> 31        -0.25098
       7 -> 32         0.28792
       8 -> 34         0.50505

 The electronic state is 1-A1.
 Alpha  occ. eigenvalues --  -19.27377 -10.39911  -1.15495  -0.71950  -0.58503
 Alpha  occ. eigenvalues --   -0.53908  -0.49134  -0.35196
 Alpha virt. eigenvalues --    0.03713   0.15156   0.21815   0.28313   0.53264
 Alpha virt. eigenvalues --    0.54908   0.63613   0.67877   0.70182   0.76097
 Alpha virt. eigenvalues --    0.97450   1.08042   1.18963   1.24398   1.37727

 Mulliken charges:
               1
     1  C    0.157614
     2  O   -0.227713
     3  H    0.035049
     4  H    0.035049
 Sum of Mulliken charges =   0.00000

 Dipole moment (field-independent basis, Debye):
    X=              0.0000    Y=              0.0000    Z=             -2.2557  Tot=              2.2557
 Quadrupole moment (field-independent basis, Debye-Ang):
   XX=            -11.3544   YY=            -11.4551   ZZ=            -11.9845
   XY=              0.0000   XZ=              0.0000   YZ=              0.0000

 Normal termination of Gaussian 16 at Sat Aug 14 23:27:26 2021.
