 Gaussian 16, Revision C.01,
 Gaussian 16:  EM64L-G16RevC.01  3-Jul-2019

 ----------------------------------------------------------------------
 #P TD(Nstates=10000) wB97XD/def2SVP SCF(maxcycles=100) Int(Grid=ultraf
 ine)
 ----------------------------------------------------------------------

 ---------------------
 xGDB7_00001_tier4.com
 ---------------------
 Symbolic Z-matrix:
 Charge =  0 Multiplicity = 1

                         Standard orientation:
 ---------------------------------------------------------------------
 Center     Atomic      Atomic             Coordinates (Angstroms)
 Number     Number       Type             X           Y           Z
 ---------------------------------------------------------------------
      1          8           0       -1.024468   -0.434082   -0.000000
      2          6           0        0.000000    0.418387    0.000000
      3          8           0        1.153588    0.104048    0.000000
      4          1           0       -0.655273   -1.330952   -0.000000
      5          1           0       -0.377689    1.460904    0.000000
 ---------------------------------------------------------------------

 SCF Done:  E(RwB97XD) =  -189.558957533     A.U. after   15 cycles

 Excitation energies and oscillator strengths:

 Excited State   1:      Singlet-A"     5.9986 eV  206.69 nm  f=0.0016  <S**2>=0.000
      12 -> 13         0.70636
 This state for optimization and/or second-order correction.
 Total Energy, E(TD-HF/TD-DFT) =  -189.338513782
 Copying the excited state density for this state as the 1-particle RhoCI density.

 Excited State   2:      Singlet-A'     8.8099 eV  140.73 nm  f=0.0547  <S**2>=0.000
      11 -> 13         0.51526
      12 -> 14        -0.45594
      12 -> 15        -0.10421

 Excited State   3:      Singlet-A"     9.5408 eV  129.95 nm  f=0.0007  <S**2>=0.000
      10 -> 13         0.69971

 Excited State   4:      Singlet-A'     9.5658 eV  129.61 nm  f=0.1832  <S**2>=0.000
      11 -> 13         0.41194
      12 -> 14         0.52960
      12 -> 15        -0.18464

 Excited State   5:      Singlet-A"     9.7121 eV  127.66 nm  f=0.0025  <S**2>=0.000
       9 -> 14         0.10041
      11 -> 14         0.68867

 Excited State   6:      Singlet-A'    10.5328 eV  117.71 nm  f=0.1213  <S**2>=0.000
       9 -> 13         0.11180
      11 -> 13         0.17350
      12 -> 15         0.66327

 Excited State   7:      Singlet-A"    11.4023 eV  108.74 nm  f=0.0001  <S**2>=0.000
      11 -> 15         0.69512

 Excited State   8:      Singlet-A'    11.9734 eV  103.55 nm  f=0.1700  <S**2>=0.000
       8 -> 14        -0.10220
       9 -> 13        -0.12954
      10 -> 14         0.67476

 Excited State   9:      Singlet-A"    12.0750 eV  102.68 nm  f=0.0220  <S**2>=0.000
       7 -> 13         0.11900
       8 -> 13         0.68901

 Excited State  10:      Singlet-A'    12.2255 eV  101.41 nm  f=0.0433  <S**2>=0.000
       9 -> 13         0.64093
      10 -> 14         0.13143
      12 -> 16        -0.15674
      12 -> 17        -0.13702

 Excited State  11:      Singlet-A"    12.6221 eV   98.23 nm  f=0.0091  <S**2>=0.000
       7 -> 13         0.68925
       8 -> 13        -0.11121

 Excited State  12:      Singlet-A'    12.9055 eV   96.07 nm  f=0.0648  <S**2>=0.000
       9 -> 13         0.16699
      12 -> 16         0.67906

 Excited State  13:      Singlet-A"    13.3180 eV   93.10 nm  f=0.0301  <S**2>=0.000
       9 -> 14         0.67315
      11 -> 16        -0.12984

 Excited State  14:      Singlet-A'    13.5274 eV   91.65 nm  f=0.0464  <S**2>=0.000
      10 -> 15         0.69670

 Excited State  15:      Singlet-A"    13.8642 eV   89.43 nm  f=0.0173  <S**2>=0.000
       9 -> 14         0.15270
      11 -> 16         0.66793
      11 -> 17        -0.12812

 Excited State  16:      Singlet-A'    14.4374 eV   85.88 nm  f=0.0260  <S**2>=0.000
       8 -> 14         0.65068
      10 -> 14         0.11567
      12 -> 17        -0.22439

 Excited State  17:      Singlet-A"    14.7262 eV   84.19 nm  f=0.0000  <S**2>=0.000
       9 -> 15         0.68539
      11 -> 16         0.11364

 Excited State  18:      Singlet-A'    14.8776 eV   83.34 nm  f=0.2275  <S**2>=0.000
       7 -> 14         0.22217
       8 -> 14         0.19712
      10 -> 16         0.14113
      11 -> 13        -0.10813
      12 -> 17         0.58201

 Excited State  19:      Singlet-A"    15.0629 eV   82.31 nm  f=0.0343  <S**2>=0.000
      11 -> 16         0.13246
      11 -> 17         0.68197

 Excited State  20:      Singlet-A'    15.3778 eV   80.63 nm  f=0.2225  <S**2>=0.000
       7 -> 14         0.64314
       8 -> 14        -0.12015
       8 -> 15         0.14251
      10 -> 16        -0.10761
      12 -> 17        -0.14437

 Excited State  21:      Singlet-A'    15.9170 eV   77.89 nm  f=0.0678  <S**2>=0.000
       8 -> 15         0.65177
      10 -> 16         0.22777

 Excited State  22:      Singlet-A'    16.3794 eV   75.70 nm  f=0.2429  <S**2>=0.000
       7 -> 15        -0.32699
       8 -> 15        -0.14727
      10 -> 16         0.55531
      10 -> 17        -0.17079
      12 -> 17        -0.10383

 Excited State  23:      Singlet-A'    16.7907 eV   73.84 nm  f=0.1210  <S**2>=0.000
       7 -> 15         0.56692
       8 -> 15        -0.10285
      10 -> 16         0.17262
      10 -> 17        -0.31611

 Excited State  24:      Singlet-A"    17.0091 eV   72.89 nm  f=0.0003  <S**2>=0.000
       6 -> 13         0.57833
       9 -> 16        -0.37790
       9 -> 17         0.11833

 Excited State  25:      Singlet-A'    17.3409 eV   71.50 nm  f=0.1255  <S**2>=0.000
       7 -> 15         0.20765
       8 -> 16         0.10815
      10 -> 16         0.23483
      10 -> 17         0.59046

 Excited State  26:      Singlet-A"    17.9717 eV   68.99 nm  f=0.3339  <S**2>=0.000
       6 -> 13         0.35403
       9 -> 16         0.58564
       9 -> 17         0.12876

 Excited State  27:      Singlet-A'    18.4260 eV   67.29 nm  f=0.0184  <S**2>=0.000
       8 -> 16         0.65652
      12 -> 18        -0.20325

 Excited State  28:      Singlet-A"    18.4442 eV   67.22 nm  f=0.0762  <S**2>=0.000
       6 -> 13        -0.16252
       9 -> 17         0.67720

 Excited State  29:      Singlet-A'    18.7556 eV   66.10 nm  f=0.0998  <S**2>=0.000
       6 -> 14        -0.16344
       8 -> 16         0.19102
      12 -> 18         0.63774

 Excited State  30:      Singlet-A"    19.0633 eV   65.04 nm  f=0.0258  <S**2>=0.000
      11 -> 18         0.10485
      12 -> 19         0.69740

 Excited State  31:      Singlet-A'    19.3803 eV   63.97 nm  f=0.0251  <S**2>=0.000
       6 -> 14         0.52966
       7 -> 16        -0.42179
      12 -> 18         0.12119

 Excited State  32:      Singlet-A"    19.4149 eV   63.86 nm  f=0.0167  <S**2>=0.000
      11 -> 18         0.68848
      12 -> 19        -0.10385

 Excited State  33:      Singlet-A'    19.4235 eV   63.83 nm  f=0.0638  <S**2>=0.000
       6 -> 14         0.37247
       7 -> 16         0.51174
       8 -> 17        -0.27414

 Excited State  34:      Singlet-A'    19.8227 eV   62.55 nm  f=0.0030  <S**2>=0.000
       6 -> 14         0.15600
       7 -> 16         0.19737
       7 -> 17         0.18354
       8 -> 17         0.61051

 Excited State  35:      Singlet-A'    20.2473 eV   61.23 nm  f=0.0382  <S**2>=0.000
       6 -> 15         0.15908
      11 -> 19         0.67440

 Excited State  36:      Singlet-A'    20.5682 eV   60.28 nm  f=0.1664  <S**2>=0.000
       6 -> 15         0.53496
       7 -> 17         0.42739

 Excited State  37:      Singlet-A'    21.1617 eV   58.59 nm  f=0.1001  <S**2>=0.000
       6 -> 15        -0.35294
       7 -> 17         0.47418
       8 -> 17        -0.10999
      10 -> 18         0.27243
      11 -> 19         0.17266

 Excited State  38:      Singlet-A'    21.8235 eV   56.81 nm  f=0.2290  <S**2>=0.000
       6 -> 15         0.18288
       7 -> 17        -0.14069
      10 -> 18         0.61083
      12 -> 20         0.13479

 Excited State  39:      Singlet-A"    22.3192 eV   55.55 nm  f=0.0401  <S**2>=0.000
      10 -> 19         0.70099

 Excited State  40:      Singlet-A'    22.5418 eV   55.00 nm  f=0.0327  <S**2>=0.000
      10 -> 18        -0.11571
      12 -> 20         0.65685
      12 -> 21         0.10287

 Excited State  41:      Singlet-A"    22.5889 eV   54.89 nm  f=0.0469  <S**2>=0.000
       9 -> 18         0.66906
      11 -> 20         0.19253

 Excited State  42:      Singlet-A"    23.1133 eV   53.64 nm  f=0.1098  <S**2>=0.000
       9 -> 18        -0.19556
      11 -> 20         0.66059

 Excited State  43:      Singlet-A'    23.1610 eV   53.53 nm  f=0.0209  <S**2>=0.000
       6 -> 16        -0.15188
      12 -> 20        -0.14317
      12 -> 21         0.51799
      12 -> 22         0.36494
      12 -> 23        -0.20929

 Excited State  44:      Singlet-A'    23.4700 eV   52.83 nm  f=0.0154  <S**2>=0.000
       6 -> 16         0.61075
       6 -> 17        -0.23231
      12 -> 22         0.20879

 Excited State  45:      Singlet-A'    23.7143 eV   52.28 nm  f=0.0330  <S**2>=0.000
       7 -> 18         0.22362
       8 -> 18         0.15206
       9 -> 19         0.62871

 Excited State  46:      Singlet-A'    23.9919 eV   51.68 nm  f=0.0052  <S**2>=0.000
       6 -> 16         0.14980
       7 -> 18        -0.11237
       8 -> 18         0.42005
      12 -> 21         0.24649
      12 -> 22        -0.41722
      12 -> 23        -0.14320

 Excited State  47:      Singlet-A"    24.3104 eV   51.00 nm  f=0.0078  <S**2>=0.000
       9 -> 20        -0.11740
      11 -> 21        -0.27802
      11 -> 22         0.62545

 Excited State  48:      Singlet-A'    24.3202 eV   50.98 nm  f=0.1639  <S**2>=0.000
       6 -> 17         0.20996
       8 -> 18         0.46436
      10 -> 18         0.12123
      12 -> 21        -0.22583
      12 -> 22         0.33760
      12 -> 23         0.13004

 Excited State  49:      Singlet-A"    24.5281 eV   50.55 nm  f=0.0344  <S**2>=0.000
      11 -> 21         0.60063
      11 -> 22         0.26530
      11 -> 23        -0.18412

 Excited State  50:      Singlet-A'    24.5633 eV   50.48 nm  f=0.0784  <S**2>=0.000
       7 -> 18        -0.16299
      12 -> 21         0.28238
      12 -> 23         0.60779

 Excited State  51:      Singlet-A'    24.7276 eV   50.14 nm  f=0.0620  <S**2>=0.000
       6 -> 16         0.23556
       6 -> 17         0.56625
       7 -> 18         0.24413
       8 -> 18        -0.18182

 Excited State  52:      Singlet-A"    24.7339 eV   50.13 nm  f=0.0003  <S**2>=0.000
       8 -> 19         0.69394

 Excited State  53:      Singlet-A"    25.1321 eV   49.33 nm  f=0.0400  <S**2>=0.000
       7 -> 19         0.69370

 Excited State  54:      Singlet-A'    25.3941 eV   48.82 nm  f=0.1357  <S**2>=0.000
       6 -> 17         0.14595
       7 -> 18        -0.32851
       8 -> 18        -0.13495
       9 -> 19         0.10260
      10 -> 20         0.52896
      12 -> 23        -0.11691

 Excited State  55:      Singlet-A"    25.5395 eV   48.55 nm  f=0.0125  <S**2>=0.000
       5 -> 13         0.15447
       9 -> 20         0.12501
      11 -> 21         0.14920
      11 -> 22         0.14832
      11 -> 23         0.62782

 Excited State  56:      Singlet-A'    25.6731 eV   48.29 nm  f=0.0343  <S**2>=0.000
       6 -> 17        -0.14561
       7 -> 18         0.42327
       7 -> 20        -0.11907
       9 -> 19        -0.15495
      10 -> 20         0.40257
      10 -> 22         0.15490
      12 -> 23         0.10761

 Excited State  57:      Singlet-A"    26.5302 eV   46.73 nm  f=0.0065  <S**2>=0.000
       5 -> 13         0.34433
       9 -> 20         0.55622
      11 -> 23        -0.21045

 Excited State  58:      Singlet-A"    26.6410 eV   46.54 nm  f=0.0000  <S**2>=0.000
       5 -> 13         0.57559
       9 -> 20        -0.38165

 Excited State  59:      Singlet-A'    26.8550 eV   46.17 nm  f=0.2082  <S**2>=0.000
      10 -> 20        -0.12132
      10 -> 21         0.44948
      10 -> 22         0.49107

 Excited State  60:      Singlet-A'    27.2307 eV   45.53 nm  f=0.0159  <S**2>=0.000
       8 -> 20        -0.23723
      10 -> 21         0.47881
      10 -> 22        -0.39048

 Excited State  61:      Singlet-A'    27.7850 eV   44.62 nm  f=0.0112  <S**2>=0.000
       6 -> 18         0.12499
       7 -> 20         0.11917
       8 -> 20         0.62461
      10 -> 21         0.15310
      10 -> 22        -0.18532

 Excited State  62:      Singlet-A"    27.8207 eV   44.57 nm  f=0.0276  <S**2>=0.000
       9 -> 22         0.69069

 Excited State  63:      Singlet-A"    27.9671 eV   44.33 nm  f=0.0001  <S**2>=0.000
       9 -> 21         0.68031

 Excited State  64:      Singlet-A'    28.4521 eV   43.58 nm  f=0.2248  <S**2>=0.000
       7 -> 20        -0.27266
       7 -> 21        -0.19375
       8 -> 23        -0.12382
      10 -> 23         0.56115

 Excited State  65:      Singlet-A'    28.7390 eV   43.14 nm  f=0.2073  <S**2>=0.000
       6 -> 18         0.44222
       7 -> 20        -0.33958
       7 -> 21        -0.12060
       8 -> 22         0.36195
      10 -> 23        -0.11975

 Excited State  66:      Singlet-A"    28.8832 eV   42.93 nm  f=0.0001  <S**2>=0.000
       4 -> 13        -0.25043
       6 -> 19         0.10965
       9 -> 21         0.10524
       9 -> 23         0.63458

 Excited State  67:      Singlet-A'    28.9582 eV   42.81 nm  f=0.1317  <S**2>=0.000
       5 -> 14        -0.19532
       6 -> 18         0.22288
       7 -> 20         0.40701
       7 -> 22        -0.10154
       8 -> 20        -0.16666
       8 -> 21         0.31003
       8 -> 22         0.17617
      10 -> 23         0.24942

 Excited State  68:      Singlet-A'    29.1454 eV   42.54 nm  f=0.0130  <S**2>=0.000
       5 -> 14         0.59730
       7 -> 20         0.17860
       7 -> 22        -0.11227
       8 -> 22         0.27698

 Excited State  69:      Singlet-A"    29.2762 eV   42.35 nm  f=0.0005  <S**2>=0.000
       4 -> 13         0.59582
       6 -> 19         0.31923
       9 -> 23         0.18544

 Excited State  70:      Singlet-A'    29.3362 eV   42.26 nm  f=0.1478  <S**2>=0.000
       6 -> 18        -0.23501
       7 -> 20        -0.19764
       7 -> 21         0.23162
       7 -> 22         0.16667
       8 -> 21         0.49181
       8 -> 22         0.21061

 Excited State  71:      Singlet-A"    29.4531 eV   42.10 nm  f=0.0066  <S**2>=0.000
       4 -> 13        -0.26440
       6 -> 19         0.61535
       9 -> 23        -0.21096

 Excited State  72:      Singlet-A'    29.6283 eV   41.85 nm  f=0.1871  <S**2>=0.000
       5 -> 14         0.15156
       6 -> 18         0.21397
       7 -> 22        -0.19828
       8 -> 21         0.20139
       8 -> 22        -0.26527
      12 -> 24         0.46873

 Excited State  73:      Singlet-A'    29.8418 eV   41.55 nm  f=0.2183  <S**2>=0.000
       5 -> 14        -0.20411
       6 -> 18        -0.22985
       7 -> 22        -0.24548
       8 -> 21        -0.20630
       8 -> 22         0.31906
       8 -> 23         0.14106
      12 -> 24         0.38941

 Excited State  74:      Singlet-A'    30.0254 eV   41.29 nm  f=0.0585  <S**2>=0.000
       7 -> 20         0.14942
       7 -> 22         0.55916
      12 -> 24         0.32055

 Excited State  75:      Singlet-A'    30.1856 eV   41.07 nm  f=0.0198  <S**2>=0.000
       7 -> 21         0.47787
       7 -> 23        -0.20664
       8 -> 21        -0.18093
       8 -> 23        -0.40980

 Excited State  76:      Singlet-A'    30.3728 eV   40.82 nm  f=0.0003  <S**2>=0.000
       5 -> 15         0.67216
       7 -> 23         0.15065

 Excited State  77:      Singlet-A'    30.9386 eV   40.07 nm  f=0.0195  <S**2>=0.000
       5 -> 15        -0.17172
       7 -> 23         0.62525
       8 -> 23        -0.18176

 Excited State  78:      Singlet-A'    31.4471 eV   39.43 nm  f=0.0125  <S**2>=0.000
       4 -> 14         0.66489
      11 -> 25        -0.12765

 Excited State  79:      Singlet-A"    31.4733 eV   39.39 nm  f=0.0135  <S**2>=0.000
       9 -> 24        -0.16190
      11 -> 24         0.68432

 Excited State  80:      Singlet-A'    31.7970 eV   38.99 nm  f=0.0880  <S**2>=0.000
       4 -> 15        -0.12814
       6 -> 18         0.15337
       6 -> 20         0.29629
       7 -> 21         0.29548
       7 -> 23         0.10481
       8 -> 23         0.41555
      10 -> 23         0.14930

 Excited State  81:      Singlet-A"    32.0725 eV   38.66 nm  f=0.0139  <S**2>=0.000
      12 -> 25         0.63318
      12 -> 27        -0.29383

 Excited State  82:      Singlet-A'    32.8839 eV   37.70 nm  f=0.0128  <S**2>=0.000
       4 -> 15         0.58969
       5 -> 16         0.10335
       6 -> 20         0.29749
      11 -> 25         0.14945

 Excited State  83:      Singlet-A'    33.1183 eV   37.44 nm  f=0.0851  <S**2>=0.000
       4 -> 15         0.12258
       5 -> 16         0.53093
       6 -> 20        -0.25756
       6 -> 21        -0.12733
      10 -> 24        -0.13006
      11 -> 25        -0.17413
      12 -> 26         0.18874

 Excited State  84:      Singlet-A'    33.2041 eV   37.34 nm  f=0.0036  <S**2>=0.000
       4 -> 15         0.13512
       5 -> 16        -0.24903
       5 -> 17         0.11308
       6 -> 20         0.12188
       6 -> 22         0.11166
       8 -> 24         0.11012
      10 -> 24         0.15538
      10 -> 26         0.11913
      11 -> 25        -0.33610
      12 -> 26         0.42878

 Excited State  85:      Singlet-A"    33.3498 eV   37.18 nm  f=0.0003  <S**2>=0.000
      10 -> 25         0.17068
      11 -> 26        -0.21938
      12 -> 25         0.24736
      12 -> 27         0.58347

 Excited State  86:      Singlet-A'    33.3515 eV   37.17 nm  f=0.1253  <S**2>=0.000
       4 -> 15        -0.28381
       5 -> 16         0.24751
       5 -> 17        -0.15185
       6 -> 20         0.32568
       6 -> 21         0.18343
       6 -> 22        -0.13786
       8 -> 23        -0.11609
      12 -> 26         0.32044

 Excited State  87:      Singlet-A"    33.3873 eV   37.14 nm  f=0.0176  <S**2>=0.000
       9 -> 26         0.18590
      11 -> 26         0.63841
      12 -> 27         0.20928

 Excited State  88:      Singlet-A'    33.7626 eV   36.72 nm  f=0.0280  <S**2>=0.000
       5 -> 16         0.16256
       5 -> 17         0.11251
       6 -> 20         0.20015
       6 -> 22         0.57753
      11 -> 27         0.13315
      12 -> 26        -0.17864

 Excited State  89:      Singlet-A'    33.9767 eV   36.49 nm  f=0.0674  <S**2>=0.000
       5 -> 17        -0.16803
       6 -> 21        -0.36997
       8 -> 24         0.17279
      10 -> 24         0.42103
      11 -> 27         0.26634

 Excited State  90:      Singlet-A'    34.0882 eV   36.37 nm  f=0.0530  <S**2>=0.000
       5 -> 17         0.34580
       6 -> 21         0.33638
       6 -> 22        -0.24130
       8 -> 24         0.10095
      10 -> 24         0.15542
      11 -> 25        -0.20779
      11 -> 27         0.21849
      12 -> 26        -0.19437

 Excited State  91:      Singlet-A'    34.2121 eV   36.24 nm  f=0.0114  <S**2>=0.000
       5 -> 17        -0.20397
       6 -> 20        -0.20076
       6 -> 21         0.37153
       6 -> 22         0.21749
       6 -> 23        -0.15304
      10 -> 24         0.24758
      10 -> 26        -0.10666
      11 -> 25         0.17832
      12 -> 26         0.13826
      12 -> 28         0.12666
      12 -> 29        -0.14340

 Excited State  92:      Singlet-A'    34.5517 eV   35.88 nm  f=0.0101  <S**2>=0.000
       5 -> 17         0.47508
       6 -> 21        -0.10962
       6 -> 23         0.16982
      10 -> 24         0.12212
      10 -> 26        -0.14499
      11 -> 25         0.24747
      11 -> 27        -0.11069
      12 -> 26         0.17256
      12 -> 28         0.16336
      12 -> 29        -0.14657

 Excited State  93:      Singlet-A"    34.6093 eV   35.82 nm  f=0.0303  <S**2>=0.000
       8 -> 25        -0.17774
      10 -> 25         0.64272
      12 -> 25        -0.15360
      12 -> 27        -0.14018

 Excited State  94:      Singlet-A'    35.3092 eV   35.11 nm  f=0.1478  <S**2>=0.000
       8 -> 26        -0.14793
      10 -> 24         0.13543
      10 -> 26         0.44535
      11 -> 27        -0.30814
      12 -> 26        -0.17300
      12 -> 28         0.23221
      12 -> 29        -0.22979

 Excited State  95:      Singlet-A'    35.5462 eV   34.88 nm  f=0.0078  <S**2>=0.000
       4 -> 16         0.37554
       4 -> 17        -0.13089
       6 -> 23         0.53140

 Excited State  96:      Singlet-A"    35.6651 eV   34.76 nm  f=0.0138  <S**2>=0.000
       9 -> 24         0.67854
      11 -> 24         0.16125

 Excited State  97:      Singlet-A'    35.8098 eV   34.62 nm  f=0.0046  <S**2>=0.000
       4 -> 16         0.53656
       6 -> 23        -0.29515
      10 -> 26        -0.16799
      12 -> 28         0.11288
      12 -> 29        -0.11401

 Excited State  98:      Singlet-A'    35.9950 eV   34.44 nm  f=0.0152  <S**2>=0.000
       4 -> 16         0.17179
       4 -> 17         0.18779
       6 -> 23        -0.10458
       8 -> 24        -0.28081
       8 -> 26        -0.10011
       9 -> 25        -0.19344
      10 -> 24         0.11800
      10 -> 26         0.29243
      11 -> 25         0.19625
      11 -> 27         0.23041
      12 -> 28        -0.19314
      12 -> 29         0.15475

 Excited State  99:      Singlet-A'    36.2852 eV   34.17 nm  f=0.0222  <S**2>=0.000
       4 -> 17         0.20016
       8 -> 24         0.45670
       9 -> 25        -0.20938
      10 -> 24        -0.28805
      10 -> 26         0.13333
      11 -> 25         0.11526
      11 -> 27         0.19819
      12 -> 28         0.18459

 Excited State 100:      Singlet-A"    36.5631 eV   33.91 nm  f=0.0260  <S**2>=0.000
       8 -> 25        -0.34684
       8 -> 27         0.25402
      10 -> 25        -0.10363
      10 -> 27         0.53934

 Excited State 101:      Singlet-A'    36.7554 eV   33.73 nm  f=0.0476  <S**2>=0.000
       4 -> 17         0.51183
       9 -> 25         0.43278

 Excited State 102:      Singlet-A"    36.9096 eV   33.59 nm  f=0.0002  <S**2>=0.000
       9 -> 26        -0.19378
       9 -> 29         0.12847
      11 -> 28         0.63679
      11 -> 29        -0.15871

 Excited State 103:      Singlet-A'    36.9400 eV   33.56 nm  f=0.0968  <S**2>=0.000
       7 -> 24         0.16351

 The electronic state is 1-A'.
 Alpha  occ. eigenvalues --  -19.31842 -19.25857 -10.43851  -1.21450  -1.12108
 Alpha  occ. eigenvalues --   -0.76053  -0.61477  -0.57823  -0.54808  -0.49453
 Alpha  occ. eigenvalues --   -0.42002  -0.37803
 Alpha virt. eigenvalues --    0.07922   0.13701   0.18275   0.30710   0.34713
 Alpha virt. eigenvalues --    0.51938   0.54176   0.63456   0.69085   0.69359
 Alpha virt. eigenvalues --    0.75222   0.96550   1.01822   1.03620   1.09870

 Mulliken charges:
               1
     1  O   -0.211735
     2  C    0.233257
     3  O   -0.259851
     4  H    0.195351
     5  H    0.042978
 Sum of Mulliken charges =  -0.00000

 Dipole moment (field-independent basis, Debye):
    X=             -1.4610    Y=             -0.4202    Z=             -0.0000  Tot=              1.5202
 Quadrupole moment (field-independent basis, Debye-Ang):
   XX=            -21.7227   YY=            -12.5321   ZZ=            -16.4931
   XY=             -0.0032   XZ=             -0.0000   YZ=              0.0000

 Normal termination of Gaussian 16 at Sat Aug 14 23:29:52 2021.
