 Gaussian 16, Revision C.01,
 Gaussian 16:  EM64L-G16RevC.01  3-Jul-2019

 ----------------------------------------------------------------------
 #P TD(Nstates=10000) wB97XD/def2SVP SCF(maxcycles=100) Int(Grid=ultraf
 ine)
 ----------------------------------------------------------------------

 ---------------------
 xGDB7_00001_tier4.com
 ---------------------
 Symbolic Z-matrix:
 Charge =  0 Multiplicity = 1

                         Standard orientation:
 ---------------------------------------------------------------------
 Center     Atomic      Atomic             Coordinates (Angstroms)
 Number     Number       Type             X           Y           Z
 ---------------------------------------------------------------------
      1          7           0        1.103618    0.139891   -0.083217
      2          7           0       -0.072588   -0.506265    0.004864
      3          6           0       -1.155369    0.162724    0.008193
      4          1           0        1.875310   -0.411500    0.269912
      5          1           0        1.124899    1.116158    0.216077
      6          1           0       -2.101707   -0.383324    0.034098
      7          1           0       -1.183499    1.266937   -0.020767
 ---------------------------------------------------------------------

 SCF Done:  E(RwB97XD) =  -149.798831658     A.U. after   14 cycles

 Excitation energies and oscillator strengths:

 Excited State   1:      Singlet-A      5.9887 eV  207.03 nm  f=0.0045  <S**2>=0.000
      11 -> 13         0.69977
 This state for optimization and/or second-order correction.
 Total Energy, E(TD-HF/TD-DFT) =  -149.578751783
 Copying the excited state density for this state as the 1-particle RhoCI density.

 Excited State   2:      Singlet-A      6.5539 eV  189.18 nm  f=0.2416  <S**2>=0.000
      12 -> 13         0.67912
      12 -> 14        -0.15127

 Excited State   3:      Singlet-A      7.2940 eV  169.98 nm  f=0.0374  <S**2>=0.000
      12 -> 13         0.14764
      12 -> 14         0.68254

 Excited State   4:      Singlet-A      8.3561 eV  148.38 nm  f=0.0053  <S**2>=0.000
      12 -> 15         0.67265
      12 -> 16        -0.19331

 Excited State   5:      Singlet-A      8.7345 eV  141.95 nm  f=0.0871  <S**2>=0.000
      11 -> 14         0.69603

 Excited State   6:      Singlet-A      9.1050 eV  136.17 nm  f=0.0087  <S**2>=0.000
      12 -> 15         0.18171
      12 -> 16         0.62144
      12 -> 17         0.24309

 Excited State   7:      Singlet-A      9.6295 eV  128.75 nm  f=0.0082  <S**2>=0.000
       9 -> 13         0.14458
      12 -> 16        -0.22746
      12 -> 17         0.62993

 Excited State   8:      Singlet-A      9.7663 eV  126.95 nm  f=0.0883  <S**2>=0.000
      10 -> 13         0.18803
      11 -> 15         0.66596

 Excited State   9:      Singlet-A     10.0139 eV  123.81 nm  f=0.0198  <S**2>=0.000
       9 -> 13         0.60865
      10 -> 13         0.25543
      11 -> 15        -0.15169
      12 -> 17        -0.14604

 Excited State  10:      Singlet-A     10.4006 eV  119.21 nm  f=0.0073  <S**2>=0.000
       9 -> 13         0.11490
      10 -> 13        -0.16343
      11 -> 16         0.67226

 Excited State  11:      Singlet-A     10.8522 eV  114.25 nm  f=0.0775  <S**2>=0.000
       9 -> 13        -0.20406
      10 -> 13         0.40895
      11 -> 16         0.14507
      11 -> 17         0.49722

 Excited State  12:      Singlet-A     11.1096 eV  111.60 nm  f=0.2851  <S**2>=0.000
       9 -> 13         0.17018
      10 -> 13        -0.38628
      11 -> 16        -0.12814
      11 -> 17         0.47979
      11 -> 18        -0.15425
      12 -> 18        -0.13626

 Excited State  13:      Singlet-A     11.2074 eV  110.63 nm  f=0.0162  <S**2>=0.000
      12 -> 18         0.67537

 Excited State  14:      Singlet-A     11.8891 eV  104.28 nm  f=0.0166  <S**2>=0.000
      10 -> 14         0.67765
      11 -> 18         0.11418

 Excited State  15:      Singlet-A     12.2632 eV  101.10 nm  f=0.0417  <S**2>=0.000
       8 -> 13        -0.44018
      11 -> 18         0.53235

 Excited State  16:      Singlet-A     12.3864 eV  100.10 nm  f=0.0783  <S**2>=0.000
       8 -> 13         0.51857
      10 -> 13        -0.13041
      10 -> 14        -0.10636
      11 -> 18         0.40843

 Excited State  17:      Singlet-A     12.8139 eV   96.76 nm  f=0.2034  <S**2>=0.000
       9 -> 14         0.64101
       9 -> 15        -0.17399
      10 -> 15        -0.15289

 Excited State  18:      Singlet-A     13.0156 eV   95.26 nm  f=0.0296  <S**2>=0.000
       9 -> 14         0.13683
      10 -> 15         0.64449
      10 -> 16        -0.19102

 Excited State  19:      Singlet-A     13.5948 eV   91.20 nm  f=0.0484  <S**2>=0.000
       7 -> 13         0.59063
       9 -> 15        -0.21073
      10 -> 15        -0.10470
      10 -> 16        -0.26461

 Excited State  20:      Singlet-A     13.7234 eV   90.34 nm  f=0.1041  <S**2>=0.000
       7 -> 13         0.32568
       7 -> 14         0.13205
       9 -> 14         0.17119
       9 -> 15         0.51977
      10 -> 16         0.20239

 Excited State  21:      Singlet-A     13.8084 eV   89.79 nm  f=0.0438  <S**2>=0.000
       7 -> 13         0.17438
       9 -> 15        -0.31256
      10 -> 15         0.13661
      10 -> 16         0.51218
      10 -> 17         0.22441

 Excited State  22:      Singlet-A     14.0595 eV   88.19 nm  f=0.0425  <S**2>=0.000
      10 -> 17        -0.33741
      10 -> 18         0.11852
      12 -> 19         0.57895

 Excited State  23:      Singlet-A     14.2964 eV   86.72 nm  f=0.2583  <S**2>=0.000
       9 -> 16         0.52228
      10 -> 16         0.16562
      10 -> 17        -0.35098
      12 -> 19        -0.14175

 Excited State  24:      Singlet-A     14.5405 eV   85.27 nm  f=0.0720  <S**2>=0.000
       9 -> 16         0.38361
       9 -> 17        -0.11642
      10 -> 16        -0.21137
      10 -> 17         0.40831
      12 -> 19         0.30122

 Excited State  25:      Singlet-A     15.1340 eV   81.92 nm  f=0.0089  <S**2>=0.000
       8 -> 14         0.65731
       8 -> 15        -0.11240

 Excited State  26:      Singlet-A     15.1904 eV   81.62 nm  f=0.0371  <S**2>=0.000
       9 -> 16         0.14680
       9 -> 17         0.38003
      11 -> 19         0.53183

 Excited State  27:      Singlet-A     15.4108 eV   80.45 nm  f=0.0821  <S**2>=0.000
       7 -> 14        -0.25544
       9 -> 17         0.47082
      11 -> 19        -0.40792

 Excited State  28:      Singlet-A     15.6127 eV   79.41 nm  f=0.0804  <S**2>=0.000
       7 -> 14         0.60998
       9 -> 14        -0.12236
       9 -> 15        -0.12401
       9 -> 17         0.23399

 Excited State  29:      Singlet-A     15.7984 eV   78.48 nm  f=0.0378  <S**2>=0.000
      10 -> 18         0.66601

 Excited State  30:      Singlet-A     16.1554 eV   76.74 nm  f=0.0956  <S**2>=0.000
       6 -> 13         0.65342
       8 -> 15         0.13501
      12 -> 19         0.10434
      12 -> 20        -0.10352

 Excited State  31:      Singlet-A     16.2021 eV   76.52 nm  f=0.1257  <S**2>=0.000
       6 -> 13        -0.14347
       8 -> 15         0.63183
      12 -> 21         0.12269

 Excited State  32:      Singlet-A     16.4496 eV   75.37 nm  f=0.0971  <S**2>=0.000
       7 -> 15        -0.21627
       8 -> 16         0.13578
       9 -> 18         0.62361

 Excited State  33:      Singlet-A     16.5962 eV   74.71 nm  f=0.0735  <S**2>=0.000
       8 -> 16         0.64267
       8 -> 17        -0.14516
       9 -> 18        -0.18227

 Excited State  34:      Singlet-A     17.0544 eV   72.70 nm  f=0.0160  <S**2>=0.000
       7 -> 15         0.53662
       7 -> 16        -0.14429
       8 -> 15         0.11613
       8 -> 17        -0.32827
       9 -> 18         0.13348

 Excited State  35:      Singlet-A     17.2149 eV   72.02 nm  f=0.1837  <S**2>=0.000
       6 -> 15        -0.13862
       6 -> 16         0.10788
       7 -> 15         0.28632
       8 -> 16         0.19550
       8 -> 17         0.54657
       9 -> 18         0.12381

 Excited State  36:      Singlet-A     17.8762 eV   69.36 nm  f=0.0077  <S**2>=0.000
       6 -> 14         0.12334
       7 -> 15         0.15313
       7 -> 16         0.51862
       7 -> 17         0.29195
      12 -> 20        -0.27012

 Excited State  37:      Singlet-A     18.0010 eV   68.88 nm  f=0.2046  <S**2>=0.000
       7 -> 16         0.24350
       7 -> 17         0.10810
      10 -> 19         0.17048
      12 -> 20         0.58959
      12 -> 22         0.10567

 Excited State  38:      Singlet-A     18.1799 eV   68.20 nm  f=0.0511  <S**2>=0.000
       6 -> 14         0.59484
       7 -> 16        -0.19405
       7 -> 17         0.15957
       8 -> 18        -0.11592
      12 -> 21         0.13061

 Excited State  39:      Singlet-A     18.4597 eV   67.16 nm  f=0.1643  <S**2>=0.000
       6 -> 14        -0.18814
       6 -> 15        -0.10446
       7 -> 16        -0.18100
       7 -> 17         0.48307
       7 -> 18        -0.12695
       8 -> 18         0.22707
       9 -> 19        -0.10477
      10 -> 19        -0.16787
      12 -> 21         0.15448

 Excited State  40:      Singlet-A     18.6658 eV   66.42 nm  f=0.1119  <S**2>=0.000
       6 -> 14        -0.12152
       7 -> 17         0.15515
      10 -> 19         0.62426
      12 -> 20        -0.14967

 Excited State  41:      Singlet-A     18.8810 eV   65.67 nm  f=0.3207  <S**2>=0.000
       6 -> 14         0.15552
       6 -> 15        -0.27542
       7 -> 17        -0.17291
       8 -> 18         0.54428
      10 -> 19         0.11661

 Excited State  42:      Singlet-A     19.1308 eV   64.81 nm  f=0.0880  <S**2>=0.000
       6 -> 15        -0.17723
       7 -> 16         0.11614
       8 -> 18        -0.18193
      11 -> 20         0.14967
      12 -> 20         0.12135
      12 -> 21         0.48762
      12 -> 22        -0.29648

 Excited State  43:      Singlet-A     19.2179 eV   64.52 nm  f=0.0281  <S**2>=0.000
       6 -> 15         0.23717
       8 -> 18         0.11465
       9 -> 19         0.13723
      11 -> 20         0.60807

 Excited State  44:      Singlet-A     19.2640 eV   64.36 nm  f=0.0665  <S**2>=0.000
       6 -> 15         0.41957
       6 -> 16        -0.10858
       7 -> 18         0.10320
       8 -> 18         0.20972
      11 -> 20        -0.21524
      12 -> 22        -0.37892
      12 -> 23        -0.14653

 Excited State  45:      Singlet-A     19.4139 eV   63.86 nm  f=0.0233  <S**2>=0.000
       6 -> 15         0.23192
       6 -> 16        -0.14046
       7 -> 17        -0.14079
       7 -> 18        -0.13854
       9 -> 19        -0.33323
      12 -> 21         0.18013
      12 -> 23         0.44701

 Excited State  46:      Singlet-A     19.5500 eV   63.42 nm  f=0.0699  <S**2>=0.000
       6 -> 15        -0.11381
       6 -> 16         0.19700
       7 -> 17         0.10402
       9 -> 19         0.28904
      12 -> 22        -0.25811
      12 -> 23         0.48823

 Excited State  47:      Singlet-A     19.6584 eV   63.07 nm  f=0.1513  <S**2>=0.000
       6 -> 16        -0.30095
       7 -> 18         0.28442
       9 -> 19         0.33224
      11 -> 20        -0.15140
      12 -> 21         0.18757
      12 -> 22         0.30740

 Excited State  48:      Singlet-A     19.8337 eV   62.51 nm  f=0.0440  <S**2>=0.000
       7 -> 18        -0.11392
      11 -> 21         0.65943
      11 -> 22         0.11833
      12 -> 22        -0.12688

 Excited State  49:      Singlet-A     19.9417 eV   62.17 nm  f=0.0294  <S**2>=0.000
       6 -> 16         0.33512
       6 -> 17         0.23553
       7 -> 18         0.43338
       9 -> 19        -0.28131

 Excited State  50:      Singlet-A     20.2352 eV   61.27 nm  f=0.0163  <S**2>=0.000
       6 -> 15        -0.14881
       6 -> 16        -0.29958
       6 -> 17        -0.28555
       7 -> 18         0.34035
       9 -> 19        -0.18267
      11 -> 23        -0.18698
      12 -> 21        -0.19293
      12 -> 22        -0.14752

 Excited State  51:      Singlet-A     20.4661 eV   60.58 nm  f=0.0148  <S**2>=0.000
       6 -> 15        -0.12169
       6 -> 16        -0.21179
       6 -> 17         0.48575
      11 -> 22        -0.31499
      11 -> 23        -0.23267

 Excited State  52:      Singlet-A     20.8211 eV   59.55 nm  f=0.0132  <S**2>=0.000
       5 -> 13         0.65095
      12 -> 24        -0.16262

 Excited State  53:      Singlet-A     20.8967 eV   59.33 nm  f=0.0141  <S**2>=0.000
       5 -> 13        -0.14977
       6 -> 16        -0.15069
       6 -> 17         0.25923
       7 -> 18        -0.11116
       8 -> 19         0.16123
      11 -> 21        -0.10933
      11 -> 22         0.55126

 Excited State  54:      Singlet-A     21.3617 eV   58.04 nm  f=0.2063  <S**2>=0.000
       6 -> 17         0.11106
       6 -> 18         0.10055
       8 -> 19         0.12186
      11 -> 23         0.50090
      12 -> 21        -0.12008
      12 -> 24         0.35833

 Excited State  55:      Singlet-A     21.5085 eV   57.64 nm  f=0.0710  <S**2>=0.000
       5 -> 13         0.15351
      11 -> 23        -0.30484
      12 -> 24         0.55265

 Excited State  56:      Singlet-A     22.1142 eV   56.07 nm  f=0.0425  <S**2>=0.000
       6 -> 18         0.63366
       7 -> 19        -0.17957
       8 -> 19        -0.16344

 Excited State  57:      Singlet-A     22.3950 eV   55.36 nm  f=0.0659  <S**2>=0.000
       5 -> 14        -0.13798
       7 -> 19        -0.18002
       8 -> 19         0.56615
       9 -> 20         0.12271
      11 -> 22        -0.12550
      11 -> 24        -0.16164
      11 -> 27         0.10665

 Excited State  58:      Singlet-A     22.6272 eV   54.79 nm  f=0.0702  <S**2>=0.000
       7 -> 19        -0.39377
      10 -> 20         0.42768
      11 -> 24         0.15128
      12 -> 25        -0.23829

 Excited State  59:      Singlet-A     22.7330 eV   54.54 nm  f=0.0756  <S**2>=0.000
       6 -> 18         0.13667
       7 -> 19         0.45163
       9 -> 20        -0.10079
      10 -> 20         0.40048
      11 -> 24        -0.15555
      12 -> 25        -0.21053

 Excited State  60:      Singlet-A     22.7987 eV   54.38 nm  f=0.0807  <S**2>=0.000
       6 -> 18         0.10182
       7 -> 19         0.13591
       8 -> 19         0.10204
       9 -> 20         0.10942
      10 -> 20         0.18175
      11 -> 24         0.53237
      12 -> 25         0.28636

 Excited State  61:      Singlet-A     22.9383 eV   54.05 nm  f=0.1208  <S**2>=0.000
      10 -> 20         0.28571
      11 -> 24        -0.31569
      12 -> 25         0.50486

 Excited State  62:      Singlet-A     23.1681 eV   53.52 nm  f=0.0779  <S**2>=0.000
       5 -> 14        -0.12943
       9 -> 20         0.52695
       9 -> 21         0.21251
       9 -> 22         0.12428
      10 -> 21         0.17830
      11 -> 25         0.21762

 Excited State  63:      Singlet-A     23.2662 eV   53.29 nm  f=0.0399  <S**2>=0.000
       5 -> 14         0.16715
       9 -> 20        -0.19047
       9 -> 21         0.42289
       9 -> 22         0.14937
      10 -> 21         0.27938
      10 -> 23         0.10458
      12 -> 26         0.30949

 Excited State  64:      Singlet-A     23.3375 eV   53.13 nm  f=0.0232  <S**2>=0.000
       5 -> 14        -0.29005
       9 -> 21        -0.19960
      10 -> 21        -0.11096
      10 -> 23         0.22083
      12 -> 26         0.46219
      12 -> 27         0.24585

 Excited State  65:      Singlet-A     23.4109 eV   52.96 nm  f=0.0063  <S**2>=0.000
       5 -> 14         0.52746
       6 -> 18         0.11613
       9 -> 20         0.22441
       9 -> 21        -0.14738
      10 -> 21        -0.13235
      12 -> 26         0.19276
      12 -> 28        -0.10903

 Excited State  66:      Singlet-A     23.6558 eV   52.41 nm  f=0.0044  <S**2>=0.000
       9 -> 21        -0.35982
      10 -> 21         0.50919
      10 -> 22        -0.23649

 Excited State  67:      Singlet-A     23.8607 eV   51.96 nm  f=0.0089  <S**2>=0.000
      10 -> 21         0.18145
      10 -> 22         0.34857
      10 -> 23         0.35705
      12 -> 25         0.16701
      12 -> 26        -0.30266
      12 -> 27         0.21296

 Excited State  68:      Singlet-A     24.0179 eV   51.62 nm  f=0.0128  <S**2>=0.000
      10 -> 21         0.10640
      10 -> 22         0.50364
      10 -> 23        -0.20176
      12 -> 26         0.17870
      12 -> 27        -0.32326

 Excited State  69:      Singlet-A     24.3088 eV   51.00 nm  f=0.0334  <S**2>=0.000
       5 -> 15         0.53114
      10 -> 23         0.25479
      11 -> 26        -0.13555
      12 -> 27        -0.29448

 Excited State  70:      Singlet-A     24.3928 eV   50.83 nm  f=0.0917  <S**2>=0.000
       5 -> 15        -0.24023
       6 -> 19        -0.10790
       8 -> 20        -0.11029
       9 -> 20        -0.16176
      10 -> 23         0.10113
      11 -> 25         0.55509

 Excited State  71:      Singlet-A     24.4627 eV   50.68 nm  f=0.0495  <S**2>=0.000
       5 -> 15        -0.29329
       5 -> 16         0.10327
       6 -> 19         0.13582
       9 -> 20         0.10729
      10 -> 23         0.38775
      11 -> 25        -0.17365
      12 -> 27        -0.36636

 Excited State  72:      Singlet-A     24.5732 eV   50.46 nm  f=0.0494  <S**2>=0.000
       5 -> 15         0.15093
       5 -> 16         0.14240
       6 -> 19         0.22718
       8 -> 20        -0.15099
       9 -> 23        -0.18901
      11 -> 25         0.15103
      11 -> 26         0.51139
      11 -> 27         0.14795
      12 -> 28        -0.13048

 Excited State  73:      Singlet-A     24.9315 eV   49.73 nm  f=0.0577  <S**2>=0.000
       5 -> 16         0.28421
       6 -> 19         0.40499
       8 -> 20         0.25646
      11 -> 25         0.13052
      11 -> 26        -0.27924
      12 -> 28        -0.20363

 Excited State  74:      Singlet-A     25.0114 eV   49.57 nm  f=0.0050  <S**2>=0.000
       5 -> 16         0.51241
       5 -> 17         0.19403
       6 -> 19        -0.25886
       9 -> 22         0.13369
       9 -> 23         0.24568

 Excited State  75:      Singlet-A     25.1963 eV   49.21 nm  f=0.0946  <S**2>=0.000
       5 -> 17        -0.13336
       6 -> 19        -0.12583
       8 -> 20         0.43111
       9 -> 21        -0.10671
       9 -> 22         0.31645
       9 -> 23        -0.25885
      11 -> 26         0.13311
      11 -> 27        -0.20167

 Excited State  76:      Singlet-A     25.2999 eV   49.01 nm  f=0.0588  <S**2>=0.000
       8 -> 20         0.36588
       9 -> 21         0.13270
       9 -> 22        -0.30947
       9 -> 23         0.32596
      11 -> 26         0.23562
      12 -> 28         0.13668

 Excited State  77:      Singlet-A     25.3770 eV   48.86 nm  f=0.2617  <S**2>=0.000
       5 -> 16        -0.21024
       6 -> 19         0.17697
       8 -> 20        -0.10488
       9 -> 22         0.32398
       9 -> 23         0.38017
       9 -> 26        -0.10061
      11 -> 26         0.12315
      11 -> 27        -0.14932
      12 -> 28        -0.19917

 Excited State  78:      Singlet-A     25.6463 eV   48.34 nm  f=0.0280  <S**2>=0.000
       8 -> 21         0.60888
       8 -> 22         0.14224
      11 -> 27         0.21449
      11 -> 28         0.10897

 Excited State  79:      Singlet-A     25.7125 eV   48.22 nm  f=0.0831  <S**2>=0.000
       5 -> 17         0.46417
       8 -> 21         0.14043
       9 -> 22        -0.16430
       9 -> 23        -0.14096
      11 -> 27        -0.35373
      12 -> 28        -0.14087

 Excited State  80:      Singlet-A     25.8262 eV   48.01 nm  f=0.1490  <S**2>=0.000
       5 -> 16        -0.16183
       5 -> 17         0.39766
       8 -> 20         0.14390
       8 -> 21        -0.11267
       8 -> 22        -0.18054
       9 -> 22         0.16129
      11 -> 27         0.33640
      12 -> 28         0.13381
      12 -> 29        -0.15931

 Excited State  81:      Singlet-A     25.9075 eV   47.86 nm  f=0.0121  <S**2>=0.000
       4 -> 13        -0.21275
       9 -> 24        -0.10445
      10 -> 24         0.58508
      12 -> 27        -0.10813
      12 -> 28        -0.19005

 Excited State  82:      Singlet-A     25.9143 eV   47.84 nm  f=0.0014  <S**2>=0.000
       5 -> 17         0.16949
      12 -> 29         0.64967

 Excited State  83:      Singlet-A     26.2429 eV   47.24 nm  f=0.0136  <S**2>=0.000
       4 -> 13        -0.27196
       8 -> 21        -0.14116
      10 -> 24        -0.17247
      11 -> 28         0.54112
      12 -> 28        -0.14574

 Excited State  84:      Singlet-A     26.3530 eV   47.05 nm  f=0.0120  <S**2>=0.000
       4 -> 13         0.54375
       6 -> 19        -0.15015
      11 -> 28         0.13460
      11 -> 29         0.14167
      12 -> 28        -0.28665

 Excited State  85:      Singlet-A     26.4324 eV   46.91 nm  f=0.0392  <S**2>=0.000
       4 -> 13         0.21649
       6 -> 19         0.18237
      10 -> 24         0.23370
      11 -> 27        -0.16248
      11 -> 28         0.37516
      11 -> 29        -0.22582
      12 -> 28         0.26898

 Excited State  86:      Singlet-A     26.8624 eV   46.16 nm  f=0.0100  <S**2>=0.000
       5 -> 18        -0.13288
       7 -> 20         0.63610
       8 -> 22        -0.18170

 Excited State  87:      Singlet-A     27.0623 eV   45.81 nm  f=0.0831  <S**2>=0.000
       5 -> 18        -0.14003
       7 -> 20         0.10806
       7 -> 23         0.19117
       8 -> 21        -0.11701
       8 -> 22         0.42513
       8 -> 23         0.17213
       9 -> 24        -0.32329
       9 -> 25        -0.16545
      10 -> 25        -0.11163
      12 -> 30         0.11208

 Excited State  88:      Singlet-A     27.1283 eV   45.70 nm  f=0.0030  <S**2>=0.000
       5 -> 18         0.41348
       8 -> 22        -0.17430
       8 -> 23         0.24418
       9 -> 24        -0.35559
      12 -> 30        -0.16270
      12 -> 31         0.14527

 Excited State  89:      Singlet-A     27.2430 eV   45.51 nm  f=0.0016  <S**2>=0.000
       5 -> 18         0.46545
       7 -> 20         0.18931
       8 -> 21        -0.10347
       8 -> 22         0.31581
       9 -> 24         0.27768

 The electronic state is 1-A.
 Alpha  occ. eigenvalues --  -14.47151 -14.47089 -10.31486  -1.08942  -0.88951
 Alpha  occ. eigenvalues --   -0.69716  -0.61637  -0.58705  -0.50083  -0.47767
 Alpha  occ. eigenvalues --   -0.35079  -0.30956
 Alpha virt. eigenvalues --    0.08558   0.14305   0.18092   0.20413   0.22916
 Alpha virt. eigenvalues --    0.30309   0.41582   0.54120   0.58460   0.60733
 Alpha virt. eigenvalues --    0.61485   0.68088   0.72426   0.75697   0.79317

 Mulliken charges:
               1
     1  N   -0.127715
     2  N   -0.138544
     3  C   -0.076764
     4  H    0.143198
     5  H    0.113073
     6  H    0.063681
     7  H    0.023072
 Sum of Mulliken charges =  -0.00000

 Dipole moment (field-independent basis, Debye):
    X=              0.7747    Y=              1.5798    Z=              0.9771  Tot=              2.0126
 Quadrupole moment (field-independent basis, Debye-Ang):
   XX=            -14.3423   YY=            -18.1730   ZZ=            -20.0743
   XY=             -0.1365   XZ=              1.7148   YZ=              0.2560

 Normal termination of Gaussian 16 at Sat Aug 14 23:30:41 2021.
