 Gaussian 16, Revision C.01,
 Gaussian 16:  EM64L-G16RevC.01  3-Jul-2019

 ----------------------------------------------------------------------
 #P TD(Nstates=10000) wB97XD/def2SVP SCF(maxcycles=100) Int(Grid=ultraf
 ine)
 ----------------------------------------------------------------------

 ---------------------
 xGDB7_00001_tier4.com
 ---------------------
 Symbolic Z-matrix:
 Charge =  0 Multiplicity = 1

                         Standard orientation:
 ---------------------------------------------------------------------
 Center     Atomic      Atomic             Coordinates (Angstroms)
 Number     Number       Type             X           Y           Z
 ---------------------------------------------------------------------
      1          6           0       -0.000062    0.008656   -1.242373
      2          6           0        0.000027   -0.001520    0.217155
      3          6           0        0.000068   -0.009931    1.425637
      4          1           0        0.500133   -0.886687   -1.640248
      5          1           0        0.527554    0.893630   -1.627834
      6          1           0       -1.027977    0.027218   -1.633762
      7          1           0        0.000092   -0.017394    2.499329
 ---------------------------------------------------------------------

 SCF Done:  E(RwB97XD) =  -116.525166262     A.U. after   14 cycles

 Excitation energies and oscillator strengths:

 Excited State   1:      Singlet-A      6.7433 eV  183.86 nm  f=0.0000  <S**2>=0.000
      10 -> 12        -0.49193
      11 -> 13         0.49196
 This state for optimization and/or second-order correction.
 Total Energy, E(TD-HF/TD-DFT) =  -116.277355635
 Copying the excited state density for this state as the 1-particle RhoCI density.

 Excited State   2:      Singlet-A      7.0324 eV  176.30 nm  f=0.0013  <S**2>=0.000
      10 -> 13        -0.49031
      11 -> 12         0.49031

 Excited State   3:      Singlet-A      7.0324 eV  176.30 nm  f=0.0013  <S**2>=0.000
      10 -> 12         0.49032
      11 -> 13         0.49029

 Excited State   4:      Singlet-A      9.2536 eV  133.98 nm  f=0.0018  <S**2>=0.000
      11 -> 14         0.69928

 Excited State   5:      Singlet-A      9.2536 eV  133.98 nm  f=0.0018  <S**2>=0.000
      10 -> 14         0.69928

 Excited State   6:      Singlet-A      9.6684 eV  128.24 nm  f=0.0000  <S**2>=0.000
      11 -> 15         0.69948

 Excited State   7:      Singlet-A      9.6685 eV  128.24 nm  f=0.0000  <S**2>=0.000
      10 -> 15         0.69948

 Excited State   8:      Singlet-A     10.1849 eV  121.73 nm  f=1.0133  <S**2>=0.000
      10 -> 13         0.44895
      10 -> 16        -0.21124
      11 -> 12         0.44896
      11 -> 17        -0.21127

 Excited State   9:      Singlet-A     11.0822 eV  111.88 nm  f=0.0000  <S**2>=0.000
      10 -> 17         0.48034
      11 -> 16        -0.48021

 Excited State  10:      Singlet-A     11.1205 eV  111.49 nm  f=0.0264  <S**2>=0.000
      10 -> 16         0.48845
      11 -> 17        -0.48844

 Excited State  11:      Singlet-A     11.1205 eV  111.49 nm  f=0.0264  <S**2>=0.000
      10 -> 17         0.48839
      11 -> 16         0.48851

 Excited State  12:      Singlet-A     11.8801 eV  104.36 nm  f=0.4760  <S**2>=0.000
       8 -> 13        -0.15362
       9 -> 12        -0.15365
      10 -> 13         0.18415
      10 -> 16         0.43233
      11 -> 12         0.18415
      11 -> 17         0.43233

 Excited State  13:      Singlet-A     12.3021 eV  100.78 nm  f=0.0396  <S**2>=0.000
       7 -> 13         0.45612
      10 -> 18         0.50707

 Excited State  14:      Singlet-A     12.3021 eV  100.78 nm  f=0.0396  <S**2>=0.000
       7 -> 12         0.45612
      11 -> 18         0.50707

 Excited State  15:      Singlet-A     12.3424 eV  100.45 nm  f=0.0000  <S**2>=0.000
       8 -> 12        -0.48553
       9 -> 13         0.48574

 Excited State  16:      Singlet-A     12.4500 eV   99.59 nm  f=0.0007  <S**2>=0.000
       7 -> 12        -0.26294
       8 -> 13        -0.38715
       9 -> 12         0.38715
      11 -> 18         0.33150

 Excited State  17:      Singlet-A     12.4500 eV   99.59 nm  f=0.0007  <S**2>=0.000
       7 -> 13         0.26292
       8 -> 12         0.38726
       9 -> 13         0.38704
      10 -> 18        -0.33151

 Excited State  18:      Singlet-A     12.7367 eV   97.34 nm  f=0.0686  <S**2>=0.000
       6 -> 13         0.13178
       7 -> 13         0.40693
       8 -> 12        -0.29302
       8 -> 14        -0.12003
       9 -> 13        -0.29297
      10 -> 18        -0.31741
      10 -> 19        -0.10901

 Excited State  19:      Singlet-A     12.7368 eV   97.34 nm  f=0.0687  <S**2>=0.000
       6 -> 12         0.13178
       7 -> 12         0.40692
       8 -> 13        -0.29300
       9 -> 12         0.29301
       9 -> 14        -0.12000
      11 -> 18        -0.31741
      11 -> 19        -0.10902

 Excited State  20:      Singlet-A     13.0002 eV   95.37 nm  f=0.2778  <S**2>=0.000
       9 -> 14         0.68753

 Excited State  21:      Singlet-A     13.0003 eV   95.37 nm  f=0.2778  <S**2>=0.000
       8 -> 14         0.68752

 Excited State  22:      Singlet-A     13.4157 eV   92.42 nm  f=0.0041  <S**2>=0.000
       8 -> 13         0.45908
       9 -> 12         0.45905
      10 -> 13         0.10545
      10 -> 16         0.11292
      11 -> 12         0.10545
      11 -> 17         0.11293

 Excited State  23:      Singlet-A     13.5425 eV   91.55 nm  f=0.0446  <S**2>=0.000
       7 -> 12         0.12319
      11 -> 19         0.68882

 Excited State  24:      Singlet-A     13.5425 eV   91.55 nm  f=0.0446  <S**2>=0.000
       7 -> 13         0.12319
      10 -> 19         0.68883

 Excited State  25:      Singlet-A     13.8535 eV   89.50 nm  f=0.1704  <S**2>=0.000
       6 -> 14        -0.12965
       7 -> 14         0.68780

 Excited State  26:      Singlet-A     14.8920 eV   83.26 nm  f=0.0000  <S**2>=0.000
       8 -> 16         0.10240
       8 -> 17        -0.48607
       9 -> 16         0.48639
       9 -> 17         0.10258

 Excited State  27:      Singlet-A     14.9160 eV   83.12 nm  f=0.0018  <S**2>=0.000
       6 -> 12        -0.26198
       6 -> 13         0.33010
       8 -> 16        -0.27823
       8 -> 17         0.26276
       9 -> 16         0.26235
       9 -> 17         0.27818

 Excited State  28:      Singlet-A     14.9160 eV   83.12 nm  f=0.0018  <S**2>=0.000
       6 -> 12         0.33015
       6 -> 13         0.26195
       8 -> 16         0.26249
       8 -> 17         0.27828
       9 -> 16         0.27816
       9 -> 17        -0.26256

 Excited State  29:      Singlet-A     15.0701 eV   82.27 nm  f=0.3334  <S**2>=0.000
       6 -> 13         0.40383
       7 -> 13        -0.10493
       7 -> 16         0.31827
       8 -> 17        -0.28849
       9 -> 16        -0.28845
      10 -> 18         0.10104
      10 -> 20         0.13977

 Excited State  30:      Singlet-A     15.0701 eV   82.27 nm  f=0.3334  <S**2>=0.000
       6 -> 12         0.40377
       7 -> 12        -0.10492
       7 -> 17         0.31828
       8 -> 16        -0.28854
       9 -> 17         0.28850
      11 -> 18         0.10103
      11 -> 20         0.13981

 Excited State  31:      Singlet-A     15.1761 eV   81.70 nm  f=0.5516  <S**2>=0.000
       6 -> 15         0.26280
       7 -> 15         0.58072
       8 -> 16         0.18104
       9 -> 17         0.18104

 Excited State  32:      Singlet-A     15.2764 eV   81.16 nm  f=0.0990  <S**2>=0.000
       7 -> 17        -0.16454
       9 -> 15        -0.18112
       9 -> 18        -0.16158
      11 -> 20         0.62979

 Excited State  33:      Singlet-A     15.2764 eV   81.16 nm  f=0.0990  <S**2>=0.000
       7 -> 16        -0.16451
       8 -> 15        -0.18110
       8 -> 18        -0.16157
      10 -> 20         0.62981

 Excited State  34:      Singlet-A     15.6126 eV   79.41 nm  f=0.0188  <S**2>=0.000
       7 -> 17        -0.26253
       9 -> 15         0.59513
       9 -> 18         0.15415
       9 -> 19        -0.10155
      11 -> 20         0.13371

 Excited State  35:      Singlet-A     15.6127 eV   79.41 nm  f=0.0187  <S**2>=0.000
       7 -> 16        -0.26281
       8 -> 15         0.59501
       8 -> 18         0.15415
       8 -> 19        -0.10154
      10 -> 20         0.13359

 Excited State  36:      Singlet-A     15.6929 eV   79.01 nm  f=0.1450  <S**2>=0.000
       6 -> 12        -0.32912
       6 -> 17        -0.12534
       7 -> 16        -0.12150
       7 -> 17         0.48363
       8 -> 16         0.11666
       9 -> 15         0.22210
       9 -> 17        -0.11688
      11 -> 20         0.19533

 Excited State  37:      Singlet-A     15.6929 eV   79.01 nm  f=0.1450  <S**2>=0.000
       6 -> 13        -0.32907
       6 -> 16        -0.12531
       7 -> 16         0.48350
       7 -> 17         0.12152
       8 -> 15         0.22242
       8 -> 17         0.11679
       9 -> 16         0.11676
      10 -> 20         0.19538

 Excited State  38:      Singlet-A     15.8236 eV   78.35 nm  f=0.0001  <S**2>=0.000
       6 -> 15        -0.16953
       7 -> 15        -0.22394
       7 -> 18         0.14665
       8 -> 16         0.41529
       9 -> 17         0.41520

 Excited State  39:      Singlet-A     16.7254 eV   74.13 nm  f=0.0581  <S**2>=0.000
       9 -> 15        -0.22137
       9 -> 18         0.64111
       9 -> 19        -0.13242

 Excited State  40:      Singlet-A     16.7254 eV   74.13 nm  f=0.0581  <S**2>=0.000
       8 -> 15        -0.22139
       8 -> 18         0.64110
       8 -> 19        -0.13242

 Excited State  41:      Singlet-A     16.8734 eV   73.48 nm  f=0.0003  <S**2>=0.000
       6 -> 14         0.55045
       6 -> 15        -0.34187
       7 -> 15         0.22229

 Excited State  42:      Singlet-A     17.0885 eV   72.55 nm  f=0.0316  <S**2>=0.000
       6 -> 14         0.39898
       6 -> 15         0.49558
       7 -> 15        -0.23299

 Excited State  43:      Singlet-A     17.9095 eV   69.23 nm  f=0.3021  <S**2>=0.000
       7 -> 18         0.60033
       8 -> 16        -0.11450
       9 -> 17        -0.11451
      10 -> 22         0.20183
      11 -> 21         0.20184

 Excited State  44:      Singlet-A     18.3811 eV   67.45 nm  f=0.0077  <S**2>=0.000
      10 -> 22        -0.47286
      10 -> 24         0.14697
      11 -> 21         0.47287
      11 -> 23        -0.14698

 Excited State  45:      Singlet-A     18.3812 eV   67.45 nm  f=0.0077  <S**2>=0.000
      10 -> 21         0.47287
      10 -> 23        -0.14698
      11 -> 22         0.47286
      11 -> 24        -0.14697

 Excited State  46:      Singlet-A     18.5008 eV   67.02 nm  f=0.0000  <S**2>=0.000
      10 -> 21        -0.48183
      10 -> 23         0.11834
      11 -> 22         0.48185
      11 -> 24        -0.11833

 Excited State  47:      Singlet-A     18.8476 eV   65.78 nm  f=0.0122  <S**2>=0.000
       6 -> 17         0.68002
       7 -> 17         0.14016

 Excited State  48:      Singlet-A     18.8476 eV   65.78 nm  f=0.0122  <S**2>=0.000
       6 -> 16         0.68002
       7 -> 16         0.14017

 Excited State  49:      Singlet-A     18.9416 eV   65.46 nm  f=0.0453  <S**2>=0.000
       5 -> 12        -0.16187
       9 -> 18         0.13657
       9 -> 19         0.58242
       9 -> 20         0.31691

 Excited State  50:      Singlet-A     18.9417 eV   65.46 nm  f=0.0453  <S**2>=0.000
       5 -> 13        -0.16188
       8 -> 18         0.13657
       8 -> 19         0.58241
       8 -> 20         0.31692

 Excited State  51:      Singlet-A     19.4151 eV   63.86 nm  f=0.0152  <S**2>=0.000
       5 -> 13         0.66404
       8 -> 19         0.15351

 Excited State  52:      Singlet-A     19.4151 eV   63.86 nm  f=0.0152  <S**2>=0.000
       5 -> 12         0.66404
       9 -> 19         0.15350

 Excited State  53:      Singlet-A     19.5622 eV   63.38 nm  f=0.3588  <S**2>=0.000
       7 -> 18         0.11056
       7 -> 19         0.65628

 Excited State  54:      Singlet-A     19.7358 eV   62.82 nm  f=0.0442  <S**2>=0.000
       9 -> 19        -0.31574
       9 -> 20         0.61884

 Excited State  55:      Singlet-A     19.7359 eV   62.82 nm  f=0.0442  <S**2>=0.000
       8 -> 19        -0.31574
       8 -> 20         0.61884

 Excited State  56:      Singlet-A     20.0673 eV   61.78 nm  f=0.0681  <S**2>=0.000
       6 -> 18         0.67130
       7 -> 20        -0.11938

 Excited State  57:      Singlet-A     20.3800 eV   60.84 nm  f=0.1581  <S**2>=0.000
       5 -> 14         0.15350
       6 -> 19         0.24976
       7 -> 18        -0.20320
       7 -> 20        -0.18866
      10 -> 22         0.34998
      10 -> 24         0.15577
      11 -> 21         0.35001
      11 -> 23         0.15585

 Excited State  58:      Singlet-A     20.7177 eV   59.84 nm  f=0.0017  <S**2>=0.000
       5 -> 14         0.26636
       6 -> 18         0.10020
       7 -> 20         0.59977
      10 -> 22         0.10081
      11 -> 21         0.10083

 Excited State  59:      Singlet-A     21.0780 eV   58.82 nm  f=0.0000  <S**2>=0.000
      10 -> 21         0.11496
      10 -> 23         0.47551
      11 -> 22        -0.11438
      11 -> 24        -0.47366

 Excited State  60:      Singlet-A     21.1115 eV   58.73 nm  f=0.0244  <S**2>=0.000
      10 -> 22        -0.14196
      10 -> 24        -0.46094
      11 -> 21         0.14192
      11 -> 23         0.46096

 Excited State  61:      Singlet-A     21.1115 eV   58.73 nm  f=0.0244  <S**2>=0.000
      10 -> 21         0.14171
      10 -> 23         0.46001
      11 -> 22         0.14216
      11 -> 24         0.46189

 Excited State  62:      Singlet-A     21.3031 eV   58.20 nm  f=0.1240  <S**2>=0.000
       5 -> 14         0.56803
       6 -> 19        -0.17941
       7 -> 19        -0.10608
       7 -> 20        -0.19925
      10 -> 24        -0.14350
      11 -> 23        -0.14339

 Excited State  63:      Singlet-A     21.7864 eV   56.91 nm  f=0.0078  <S**2>=0.000
       4 -> 15        -0.12323
       5 -> 15        -0.41355
       6 -> 19         0.50664

 Excited State  64:      Singlet-A     21.8969 eV   56.62 nm  f=0.0007  <S**2>=0.000
       4 -> 12         0.68005
       5 -> 17         0.11402

 Excited State  65:      Singlet-A     21.8969 eV   56.62 nm  f=0.0007  <S**2>=0.000
       4 -> 13         0.68006
       5 -> 16         0.11401

 Excited State  66:      Singlet-A     22.0143 eV   56.32 nm  f=0.0084  <S**2>=0.000
       5 -> 14         0.14574
       5 -> 15         0.49115
       6 -> 19         0.34386
       7 -> 18         0.11021
      10 -> 22        -0.13886
      11 -> 21        -0.13885

 Excited State  67:      Singlet-A     22.6836 eV   54.66 nm  f=0.0619  <S**2>=0.000
       4 -> 14        -0.30805
       5 -> 15        -0.14909
       5 -> 18         0.19023
       7 -> 18         0.12081
      10 -> 24         0.35445
      11 -> 23         0.35444

 Excited State  68:      Singlet-A     22.8346 eV   54.30 nm  f=0.0032  <S**2>=0.000
       5 -> 17         0.11153
      10 -> 25         0.22392
      11 -> 25         0.62718
      11 -> 26        -0.12671

 Excited State  69:      Singlet-A     22.8346 eV   54.30 nm  f=0.0032  <S**2>=0.000
       5 -> 16         0.11159
      10 -> 25         0.62716
      10 -> 26        -0.12668
      11 -> 25        -0.22393

 Excited State  70:      Singlet-A     22.8992 eV   54.14 nm  f=0.0528  <S**2>=0.000
       4 -> 12        -0.11105
       4 -> 17        -0.13278
       5 -> 16        -0.11762
       5 -> 17         0.60525
       8 -> 22        -0.12498
       9 -> 21         0.12503
      11 -> 25        -0.14137

 Excited State  71:      Singlet-A     22.8992 eV   54.14 nm  f=0.0528  <S**2>=0.000
       4 -> 13        -0.11104
       4 -> 16        -0.13277
       5 -> 16         0.60524
       5 -> 17         0.11762
       8 -> 21        -0.12499
       9 -> 22        -0.12500
      10 -> 25        -0.14145

 Excited State  72:      Singlet-A     22.9689 eV   53.98 nm  f=0.0235  <S**2>=0.000
       6 -> 18         0.10063
       6 -> 20         0.66484

 Excited State  73:      Singlet-A     23.0985 eV   53.68 nm  f=0.0000  <S**2>=0.000
       8 -> 21         0.45361
       8 -> 23         0.11237
       9 -> 22        -0.45360
       9 -> 24        -0.11237
      10 -> 28        -0.15169
      11 -> 27         0.15173

 Excited State  74:      Singlet-A     23.2519 eV   53.32 nm  f=0.0134  <S**2>=0.000
       4 -> 14         0.57847
       5 -> 14         0.13176
       8 -> 22         0.12423
       9 -> 21         0.12426
      10 -> 24         0.19122
      11 -> 23         0.19122

 Excited State  75:      Singlet-A     23.3708 eV   53.05 nm  f=0.0073  <S**2>=0.000
       5 -> 17        -0.16546
       7 -> 21        -0.15531
      10 -> 27         0.41869
      10 -> 30        -0.16825
      11 -> 28        -0.41867
      11 -> 29         0.16825

 Excited State  76:      Singlet-A     23.3708 eV   53.05 nm  f=0.0073  <S**2>=0.000
       5 -> 16        -0.16546
       7 -> 22        -0.15527
      10 -> 28         0.41869
      10 -> 29        -0.16825
      11 -> 27         0.41868
      11 -> 30        -0.16824

 Excited State  77:      Singlet-A     23.5406 eV   52.67 nm  f=0.0072  <S**2>=0.000
       5 -> 17         0.12063
       7 -> 21         0.57551
       8 -> 22         0.20335
       9 -> 21        -0.20353
      10 -> 27         0.13279
      11 -> 28        -0.13281

 Excited State  78:      Singlet-A     23.5406 eV   52.67 nm  f=0.0072  <S**2>=0.000
       5 -> 16         0.12065
       7 -> 22         0.57549
       8 -> 21         0.20348
       9 -> 22         0.20346
      10 -> 28         0.13280
      11 -> 27         0.13274

 Excited State  79:      Singlet-A     23.6199 eV   52.49 nm  f=0.0000  <S**2>=0.000
       8 -> 21        -0.15825
       9 -> 22         0.15829
      10 -> 28        -0.43097
      10 -> 29         0.17143
      11 -> 27         0.43099
      11 -> 30        -0.17143

 Excited State  80:      Singlet-A     23.6472 eV   52.43 nm  f=0.0693  <S**2>=0.000
       4 -> 14        -0.15827
       5 -> 18        -0.13797
       8 -> 22         0.45176
       9 -> 21         0.45182

 Excited State  81:      Singlet-A     23.9602 eV   51.75 nm  f=0.1572  <S**2>=0.000
       5 -> 17         0.14719
       7 -> 21        -0.31875
       8 -> 22         0.37967
       9 -> 21        -0.37947
      11 -> 26        -0.20620

 Excited State  82:      Singlet-A     23.9602 eV   51.75 nm  f=0.1572  <S**2>=0.000
       5 -> 16         0.14717
       7 -> 22        -0.31879
       8 -> 21         0.37955
       9 -> 22         0.37956
      10 -> 26        -0.20619

 Excited State  83:      Singlet-A     24.3659 eV   50.88 nm  f=0.0381  <S**2>=0.000
       7 -> 21        -0.10984
       8 -> 22         0.10214
       9 -> 21        -0.10215
      10 -> 26        -0.19362
      10 -> 31         0.11389
      11 -> 25         0.10853
      11 -> 26         0.52635
      11 -> 31        -0.30965

 Excited State  84:      Singlet-A     24.3659 eV   50.88 nm  f=0.0381  <S**2>=0.000
       7 -> 22        -0.10985
       8 -> 21         0.10214
       9 -> 22         0.10214
      10 -> 25         0.10852
      10 -> 26         0.52634
      10 -> 31        -0.30963
      11 -> 26         0.19362
      11 -> 31        -0.11391

 Excited State  85:      Singlet-A     24.5653 eV   50.47 nm  f=0.0072  <S**2>=0.000
       4 -> 15         0.41543
       4 -> 18         0.13296
       4 -> 19        -0.13884
       5 -> 15        -0.19493
       5 -> 18        -0.10652
       5 -> 19        -0.19581
      10 -> 27        -0.23609
      10 -> 30         0.15012
      11 -> 28        -0.23606
      11 -> 29         0.15018

 Excited State  86:      Singlet-A     24.7934 eV   50.01 nm  f=0.0445  <S**2>=0.000
       4 -> 15        -0.30844
       5 -> 18         0.38038
       5 -> 19        -0.33767
       7 -> 25         0.10966
      10 -> 27        -0.15264
      11 -> 28        -0.15262

 Excited State  87:      Singlet-A     24.9287 eV   49.74 nm  f=0.0038  <S**2>=0.000
       4 -> 17         0.60559
       5 -> 17         0.10849
      10 -> 30         0.16204
      11 -> 26        -0.10239
      11 -> 29        -0.16207
      11 -> 31        -0.13641

 Excited State  88:      Singlet-A     24.9287 eV   49.74 nm  f=0.0038  <S**2>=0.000
       4 -> 16         0.60556
       5 -> 16         0.10848
      10 -> 26        -0.10235
      10 -> 29         0.16216
      10 -> 31        -0.13650
      11 -> 30         0.16199

 Excited State  89:      Singlet-A     24.9790 eV   49.64 nm  f=0.0000  <S**2>=0.000
      10 -> 28         0.18531
      10 -> 29         0.45703
      11 -> 27        -0.18524
      11 -> 30        -0.45689

 Excited State  90:      Singlet-A     25.0259 eV   49.54 nm  f=0.0058  <S**2>=0.000
       4 -> 15         0.41864
       5 -> 18         0.45767
       5 -> 19         0.13553
      10 -> 27         0.10222
      11 -> 28         0.10208

 Excited State  91:      Singlet-A     25.0461 eV   49.50 nm  f=0.0243  <S**2>=0.000
       4 -> 17         0.20641
       8 -> 22        -0.10155
       9 -> 21         0.10154
      10 -> 27        -0.14127
      10 -> 28        -0.10626
      10 -> 29        -0.24243
      10 -> 30        -0.32591
      11 -> 27        -0.10637
      11 -> 28         0.14140
      11 -> 29         0.32597
      11 -> 30        -0.24265

 Excited State  92:      Singlet-A     25.0461 eV   49.50 nm  f=0.0243  <S**2>=0.000
       4 -> 16        -0.20650
       8 -> 21         0.10155
       9 -> 22         0.10155
      10 -> 27        -0.10623
      10 -> 28         0.14126
      10 -> 29         0.32584
      10 -> 30        -0.24251
      11 -> 27         0.14132
      11 -> 28         0.10639
      11 -> 29         0.24259
      11 -> 30         0.32600

 Excited State  93:      Singlet-A     25.1778 eV   49.24 nm  f=0.0086  <S**2>=0.000
       4 -> 17         0.19147
      11 -> 26         0.30435
      11 -> 31         0.59111

 Excited State  94:      Singlet-A     25.1778 eV   49.24 nm  f=0.0086  <S**2>=0.000
       4 -> 16         0.19145
      10 -> 26         0.30436
      10 -> 31         0.59111

 Excited State  95:      Singlet-A     25.2046 eV   49.19 nm  f=0.0049  <S**2>=0.000
      10 -> 27         0.22547

 The electronic state is 1-A.
 Alpha  occ. eigenvalues --  -10.32245 -10.30075 -10.28890  -0.87041  -0.78873
 Alpha  occ. eigenvalues --   -0.61073  -0.53931  -0.51754  -0.51754  -0.34969
 Alpha  occ. eigenvalues --   -0.34969
 Alpha virt. eigenvalues --    0.12473   0.12473   0.15119   0.18463   0.22698
 Alpha virt. eigenvalues --    0.22698   0.29759   0.34455   0.40596   0.53764
 Alpha virt. eigenvalues --    0.53764   0.62740   0.62740   0.68723   0.72802

 Mulliken charges:
               1
     1  C    0.012326
     2  C    0.164742
     3  C   -0.434091
     4  H    0.070582
     5  H    0.070584
     6  H    0.070582
     7  H    0.045274
 Sum of Mulliken charges =  -0.00000

 Dipole moment (field-independent basis, Debye):
    X=             -0.0001    Y=              0.0054    Z=             -0.7684  Tot=              0.7684
 Quadrupole moment (field-independent basis, Debye-Ang):
   XX=            -19.3440   YY=            -19.3437   ZZ=            -13.7390
   XY=             -0.0000   XZ=              0.0002   YZ=             -0.0390

 Normal termination of Gaussian 16 at Sat Aug 14 23:20:40 2021.
