 Gaussian 16, Revision C.01,
 Gaussian 16:  EM64L-G16RevC.01  3-Jul-2019

 ----------------------------------------------------------------------
 #P TD(Nstates=10000) wB97XD/def2SVP SCF(maxcycles=100) Int(Grid=ultraf
 ine)
 ----------------------------------------------------------------------

 ---------------------
 xGDB7_00001_tier4.com
 ---------------------
 Symbolic Z-matrix:
 Charge =  0 Multiplicity = 1

                         Standard orientation:
 ---------------------------------------------------------------------
 Center     Atomic      Atomic             Coordinates (Angstroms)
 Number     Number       Type             X           Y           Z
 ---------------------------------------------------------------------
      1          6           0        0.046399    0.649661    0.000000
      2          8           0        0.046399   -0.749705    0.000000
      3          1           0       -0.439261    1.084276    0.894962
      4          1           0       -0.439261    1.084276   -0.894962
      5          1           0        1.093835    0.983607    0.000000
      6          1           0       -0.864903   -1.052487    0.000000
 ---------------------------------------------------------------------

 SCF Done:  E(RwB97XD) =  -115.596118896     A.U. after   13 cycles

 Excitation energies and oscillator strengths:

 Excited State   1:      Singlet-A"     7.8372 eV  158.20 nm  f=0.0013  <S**2>=0.000
       9 -> 10         0.68041
       9 -> 11        -0.18017
 This state for optimization and/or second-order correction.
 Total Energy, E(TD-HF/TD-DFT) =  -115.308106663
 Copying the excited state density for this state as the 1-particle RhoCI density.

 Excited State   2:      Singlet-A"     9.4856 eV  130.71 nm  f=0.0788  <S**2>=0.000
       9 -> 10         0.18320
       9 -> 11         0.67872

 Excited State   3:      Singlet-A'     9.7024 eV  127.79 nm  f=0.0031  <S**2>=0.000
       8 -> 10         0.68889
       8 -> 11        -0.11429

 Excited State   4:      Singlet-A"    10.3610 eV  119.66 nm  f=0.0259  <S**2>=0.000
       9 -> 12         0.68757
       9 -> 14        -0.14915

 Excited State   5:      Singlet-A'    10.7350 eV  115.49 nm  f=0.0818  <S**2>=0.000
       8 -> 12        -0.10575
       9 -> 13         0.68703

 Excited State   6:      Singlet-A'    11.1086 eV  111.61 nm  f=0.1905  <S**2>=0.000
       7 -> 10         0.12810
       8 -> 10         0.11194
       8 -> 11         0.67490

 Excited State   7:      Singlet-A"    11.3777 eV  108.97 nm  f=0.0122  <S**2>=0.000
       9 -> 12         0.14705
       9 -> 14         0.67870

 Excited State   8:      Singlet-A"    12.1171 eV  102.32 nm  f=0.1034  <S**2>=0.000
       8 -> 13         0.69708

 Excited State   9:      Singlet-A'    12.2762 eV  101.00 nm  f=0.1876  <S**2>=0.000
       8 -> 12         0.67821
       8 -> 14        -0.12704
       9 -> 13         0.10587

 Excited State  10:      Singlet-A'    12.4473 eV   99.61 nm  f=0.0286  <S**2>=0.000
       7 -> 10         0.66274
       8 -> 11        -0.11791
       8 -> 14         0.17535

 Excited State  11:      Singlet-A"    12.8265 eV   96.66 nm  f=0.1299  <S**2>=0.000
       6 -> 10         0.69563

 Excited State  12:      Singlet-A'    13.3586 eV   92.81 nm  f=0.0126  <S**2>=0.000
       6 -> 13         0.11196
       7 -> 10        -0.18388
       7 -> 11        -0.19900
       8 -> 12         0.13193
       8 -> 14         0.62071

 Excited State  13:      Singlet-A'    13.7339 eV   90.28 nm  f=0.2651  <S**2>=0.000
       7 -> 11         0.65830
       8 -> 14         0.22492

 Excited State  14:      Singlet-A"    13.9784 eV   88.70 nm  f=0.0621  <S**2>=0.000
       6 -> 11         0.69342
       6 -> 12         0.10391

 Excited State  15:      Singlet-A"    14.5157 eV   85.41 nm  f=0.0011  <S**2>=0.000
       6 -> 12         0.27801
       7 -> 13         0.64291

 Excited State  16:      Singlet-A'    14.6895 eV   84.40 nm  f=0.0988  <S**2>=0.000
       5 -> 10        -0.30528
       5 -> 11         0.11816
       6 -> 13         0.34177
       7 -> 12         0.50713

 Excited State  17:      Singlet-A"    14.7432 eV   84.10 nm  f=0.0436  <S**2>=0.000
       6 -> 11        -0.10106
       6 -> 12         0.63054
       7 -> 13        -0.28439

 Excited State  18:      Singlet-A'    14.8815 eV   83.31 nm  f=0.3419  <S**2>=0.000
       5 -> 10         0.56179
       7 -> 12         0.39878

 Excited State  19:      Singlet-A'    15.6611 eV   79.17 nm  f=0.0835  <S**2>=0.000
       5 -> 10         0.19764
       5 -> 11        -0.16461
       5 -> 12        -0.14365
       6 -> 13         0.56802
       7 -> 12        -0.20430
       7 -> 14        -0.14752

 Excited State  20:      Singlet-A'    16.0293 eV   77.35 nm  f=0.2279  <S**2>=0.000
       5 -> 10         0.14317
       5 -> 11         0.61453
       7 -> 14        -0.29737

 Excited State  21:      Singlet-A'    16.1651 eV   76.70 nm  f=0.0208  <S**2>=0.000
       5 -> 10         0.11279
       5 -> 11         0.25716
       5 -> 14        -0.12769
       6 -> 13         0.13335
       7 -> 12        -0.12326
       7 -> 14         0.59465

 Excited State  22:      Singlet-A"    16.3735 eV   75.72 nm  f=0.0655  <S**2>=0.000
       5 -> 13        -0.13687
       6 -> 14         0.67528

 Excited State  23:      Singlet-A"    16.9009 eV   73.36 nm  f=0.1184  <S**2>=0.000
       5 -> 13         0.68773
       6 -> 14         0.13107

 Excited State  24:      Singlet-A'    17.0495 eV   72.72 nm  f=0.0174  <S**2>=0.000
       5 -> 12         0.68227

 Excited State  25:      Singlet-A'    18.6964 eV   66.31 nm  f=0.0531  <S**2>=0.000
       5 -> 14         0.60667
       8 -> 15         0.10624
       9 -> 16         0.30420

 Excited State  26:      Singlet-A"    18.7008 eV   66.30 nm  f=0.0018  <S**2>=0.000
       9 -> 15         0.57705
       9 -> 17         0.39555

 Excited State  27:      Singlet-A"    19.0394 eV   65.12 nm  f=0.0243  <S**2>=0.000
       9 -> 15        -0.39203
       9 -> 17         0.57791

 Excited State  28:      Singlet-A'    19.5727 eV   63.35 nm  f=0.0544  <S**2>=0.000
       4 -> 10         0.49982
       5 -> 14         0.12071
       8 -> 15         0.10901
       9 -> 16        -0.45378

 Excited State  29:      Singlet-A'    20.0144 eV   61.95 nm  f=0.1230  <S**2>=0.000
       4 -> 10         0.45715
       5 -> 14        -0.18252
       8 -> 15        -0.26420
       8 -> 17        -0.18451
       9 -> 16         0.34913

 Excited State  30:      Singlet-A'    20.7488 eV   59.75 nm  f=0.0568  <S**2>=0.000
       4 -> 11        -0.29884
       8 -> 17         0.59897
       9 -> 16         0.13351

 Excited State  31:      Singlet-A'    20.8241 eV   59.54 nm  f=0.0888  <S**2>=0.000
       4 -> 11         0.48569
       8 -> 15        -0.39838
       8 -> 17         0.26592

 Excited State  32:      Singlet-A"    20.9553 eV   59.17 nm  f=0.0477  <S**2>=0.000
       4 -> 13        -0.10851
       8 -> 16         0.67982

 Excited State  33:      Singlet-A'    21.2180 eV   58.43 nm  f=0.0967  <S**2>=0.000
       4 -> 10         0.10566
       4 -> 11         0.35557
       4 -> 12         0.21629
       5 -> 14        -0.16933
       7 -> 17         0.20366
       8 -> 15         0.44654
       9 -> 16         0.14706

 Excited State  34:      Singlet-A'    21.6390 eV   57.30 nm  f=0.0421  <S**2>=0.000
       4 -> 11        -0.14127
       4 -> 12         0.65591
       8 -> 15        -0.10744
       8 -> 17        -0.11202

 Excited State  35:      Singlet-A"    21.7324 eV   57.05 nm  f=0.0042  <S**2>=0.000
       4 -> 13         0.67550
       9 -> 18         0.11630

 Excited State  36:      Singlet-A"    22.0430 eV   56.25 nm  f=0.0240  <S**2>=0.000
       4 -> 13        -0.10890
       6 -> 15        -0.12832
       9 -> 18         0.66812

 Excited State  37:      Singlet-A'    23.1301 eV   53.60 nm  f=0.0507  <S**2>=0.000
       4 -> 14         0.45598
       6 -> 16         0.16717
       7 -> 15        -0.39814
       7 -> 17        -0.29898

 Excited State  38:      Singlet-A"    23.1443 eV   53.57 nm  f=0.0000  <S**2>=0.000
       6 -> 15         0.29579
       7 -> 16         0.62447

 Excited State  39:      Singlet-A'    23.3648 eV   53.06 nm  f=0.0338  <S**2>=0.000
       4 -> 14         0.46186
       7 -> 15         0.46829
       8 -> 18         0.19184

 Excited State  40:      Singlet-A"    23.3863 eV   53.02 nm  f=0.0782  <S**2>=0.000
       6 -> 17         0.65510
       7 -> 16        -0.14833
       9 -> 19         0.15469

 Excited State  41:      Singlet-A"    23.5435 eV   52.66 nm  f=0.1489  <S**2>=0.000
       5 -> 16        -0.10024
       6 -> 15         0.58607
       6 -> 17        -0.14600
       7 -> 16        -0.27140
       9 -> 21         0.12560

 Excited State  42:      Singlet-A'    24.0046 eV   51.65 nm  f=0.1344  <S**2>=0.000
       4 -> 14         0.13082
       5 -> 17        -0.19335
       6 -> 16         0.28335
       7 -> 15        -0.16313
       7 -> 17         0.50012
       8 -> 15        -0.12158
       8 -> 18         0.14937

 Excited State  43:      Singlet-A'    24.0421 eV   51.57 nm  f=0.1253  <S**2>=0.000
       4 -> 14        -0.13585
       6 -> 16         0.52160
       7 -> 15         0.14956
       7 -> 17        -0.15777
       9 -> 20        -0.35128

 Excited State  44:      Singlet-A"    24.3091 eV   51.00 nm  f=0.0184  <S**2>=0.000
       6 -> 17        -0.14774
       9 -> 19         0.66727
       9 -> 21        -0.14145

 Excited State  45:      Singlet-A'    24.3359 eV   50.95 nm  f=0.0545  <S**2>=0.000
       5 -> 17         0.11128
       6 -> 16        -0.15419
       7 -> 15        -0.19031
       8 -> 18         0.56385
       9 -> 20        -0.26384

 Excited State  46:      Singlet-A'    24.6790 eV   50.24 nm  f=0.1066  <S**2>=0.000
       4 -> 14        -0.10523
       5 -> 17         0.11508
       6 -> 16         0.24538
       7 -> 17        -0.12073
       8 -> 18         0.27946
       9 -> 20         0.52032

 Excited State  47:      Singlet-A"    24.6911 eV   50.21 nm  f=0.0081  <S**2>=0.000
       5 -> 16         0.10453
       6 -> 18         0.10586
       9 -> 18        -0.11014
       9 -> 19         0.11258
       9 -> 21         0.64108
       9 -> 22         0.14978

 Excited State  48:      Singlet-A'    25.3265 eV   48.95 nm  f=0.0132  <S**2>=0.000
       5 -> 15         0.68936

 Excited State  49:      Singlet-A"    25.6507 eV   48.34 nm  f=0.0035  <S**2>=0.000
       5 -> 16        -0.39784
       8 -> 20         0.56221
       9 -> 22        -0.10133

 Excited State  50:      Singlet-A'    25.7540 eV   48.14 nm  f=0.0844  <S**2>=0.000
       5 -> 17         0.33984
       7 -> 17         0.14548
       8 -> 19         0.54305
       8 -> 21        -0.13435

 Excited State  51:      Singlet-A"    25.8326 eV   48.00 nm  f=0.0007  <S**2>=0.000
       5 -> 16        -0.44439
       8 -> 20        -0.21847
       9 -> 22         0.49333

 Excited State  52:      Singlet-A'    26.0583 eV   47.58 nm  f=0.1647  <S**2>=0.000
       5 -> 17         0.50299
       7 -> 18         0.19722
       8 -> 19        -0.37751
       8 -> 21        -0.13048

 Excited State  53:      Singlet-A"    26.4516 eV   46.87 nm  f=0.2136  <S**2>=0.000
       5 -> 16         0.32031
       6 -> 18         0.17141
       6 -> 21        -0.10878
       8 -> 20         0.31960
       9 -> 21        -0.16984
       9 -> 22         0.42745

 Excited State  54:      Singlet-A'    26.5239 eV   46.74 nm  f=0.0005  <S**2>=0.000
       5 -> 17         0.17599
       6 -> 20        -0.18687
       7 -> 18        -0.39806
       8 -> 21         0.45869

 Excited State  55:      Singlet-A'    27.0386 eV   45.85 nm  f=0.0561  <S**2>=0.000
       7 -> 18         0.50844
       8 -> 21         0.45168

 Excited State  56:      Singlet-A"    27.1414 eV   45.68 nm  f=0.0022  <S**2>=0.000
       6 -> 18         0.66319
       9 -> 22        -0.15941

 Excited State  57:      Singlet-A'    27.6675 eV   44.81 nm  f=0.0374  <S**2>=0.000
       6 -> 20         0.11265
       7 -> 19         0.31827
       7 -> 21        -0.12073
       8 -> 19        -0.13142
       8 -> 22         0.58113

 Excited State  58:      Singlet-A"    28.1086 eV   44.11 nm  f=0.0081  <S**2>=0.000
       7 -> 20         0.69636
       8 -> 20        -0.10179

 Excited State  59:      Singlet-A"    28.4696 eV   43.55 nm  f=0.0771  <S**2>=0.000
       6 -> 19         0.67415
       6 -> 21        -0.16672

 Excited State  60:      Singlet-A'    28.4894 eV   43.52 nm  f=0.1128  <S**2>=0.000
       3 -> 10        -0.25488
       6 -> 20         0.18987
       7 -> 19         0.50815
       7 -> 21         0.17185
       8 -> 22        -0.27574

 Excited State  61:      Singlet-A'    28.6356 eV   43.30 nm  f=0.0032  <S**2>=0.000
       3 -> 10         0.61999
       3 -> 11        -0.11306
       7 -> 19         0.22638
       7 -> 21         0.11263
       9 -> 24         0.11082

 Excited State  62:      Singlet-A'    28.8308 eV   43.00 nm  f=0.0084  <S**2>=0.000
       5 -> 18         0.28695
       6 -> 20        -0.41887
       7 -> 21         0.43311
       8 -> 22         0.10340

 Excited State  63:      Singlet-A'    29.3686 eV   42.22 nm  f=0.2079  <S**2>=0.000
       4 -> 17         0.10796
       5 -> 18         0.42400
       5 -> 21        -0.11907
       6 -> 20        -0.13501
       7 -> 19         0.13063
       7 -> 21        -0.41870
       7 -> 22         0.16234
       8 -> 22        -0.15867

 Excited State  64:      Singlet-A"    29.3883 eV   42.19 nm  f=0.0845  <S**2>=0.000
       6 -> 19         0.13982
       6 -> 21         0.64557
       6 -> 22         0.17818

 Excited State  65:      Singlet-A'    29.9423 eV   41.41 nm  f=0.2000  <S**2>=0.000
       4 -> 15         0.32610
       4 -> 17         0.34183
       5 -> 18        -0.28408
       6 -> 20        -0.19530
       7 -> 22         0.35761

 Excited State  66:      Singlet-A'    30.0726 eV   41.23 nm  f=0.0248  <S**2>=0.000
       3 -> 10         0.13350
       3 -> 11         0.65448
       4 -> 17         0.16436
       9 -> 24        -0.10405

 Excited State  67:      Singlet-A'    30.1419 eV   41.13 nm  f=0.0242  <S**2>=0.000
       4 -> 15         0.48411
       4 -> 17        -0.28707
       5 -> 18         0.19664
       5 -> 19         0.19922
       6 -> 20         0.18613
       7 -> 22         0.18159

 Excited State  68:      Singlet-A"    30.3265 eV   40.88 nm  f=0.0053  <S**2>=0.000
       4 -> 16        -0.34359
       5 -> 20        -0.27965
       6 -> 22         0.53699

 Excited State  69:      Singlet-A'    30.4577 eV   40.71 nm  f=0.0053  <S**2>=0.000
       4 -> 15        -0.35655
       4 -> 17        -0.18004
       5 -> 19         0.11478
       7 -> 19        -0.10983
       7 -> 22         0.52227

 Excited State  70:      Singlet-A"    30.5083 eV   40.64 nm  f=0.0453  <S**2>=0.000
       4 -> 16         0.55613
       5 -> 20        -0.39807
       6 -> 22         0.13222

 Excited State  71:      Singlet-A'    30.6800 eV   40.41 nm  f=0.0740  <S**2>=0.000
       4 -> 17         0.30876
       5 -> 19         0.59933

 Excited State  72:      Singlet-A"    30.8684 eV   40.17 nm  f=0.0005  <S**2>=0.000
       3 -> 13         0.38483
       5 -> 20         0.17694
       6 -> 21        -0.11244
       6 -> 22         0.14167
       9 -> 23         0.52071

 Excited State  73:      Singlet-A'    30.9683 eV   40.04 nm  f=0.0093  <S**2>=0.000
       3 -> 12         0.68485
       5 -> 21        -0.10445

 Excited State  74:      Singlet-A"    31.0013 eV   39.99 nm  f=0.0331  <S**2>=0.000
       4 -> 16         0.23741
       5 -> 20         0.44952
       6 -> 21        -0.10026
       6 -> 22         0.36427
       9 -> 23        -0.26691

 Excited State  75:      Singlet-A"    31.1412 eV   39.81 nm  f=0.0025  <S**2>=0.000
       3 -> 13         0.58229
       5 -> 20        -0.12815
       9 -> 23        -0.36667

 Excited State  76:      Singlet-A'    31.1948 eV   39.75 nm  f=0.0739  <S**2>=0.000
       4 -> 17         0.25619
       5 -> 18         0.18503
       5 -> 21         0.49938
       6 -> 20         0.12590
       9 -> 24        -0.21774

 Excited State  77:      Singlet-A'    32.0403 eV   38.70 nm  f=0.0171  <S**2>=0.000
       3 -> 14         0.47468
       5 -> 21         0.25500
       8 -> 23        -0.24372
       9 -> 24         0.33455

 Excited State  78:      Singlet-A'    32.2529 eV   38.44 nm  f=0.0087  <S**2>=0.000
       3 -> 14         0.31119
       4 -> 17        -0.11598
       5 -> 22         0.42023
       8 -> 23         0.24348
       9 -> 24        -0.30048

 Excited State  79:      Singlet-A'    32.4489 eV   38.21 nm  f=0.0039  <S**2>=0.000
       4 -> 17         0.11945
       4 -> 19        -0.20588
       5 -> 18         0.12761
       5 -> 19        -0.18496
       5 -> 21        -0.28469
       5 -> 22         0.41607
       6 -> 20         0.20672
       7 -> 21         0.10773
       8 -> 23        -0.14078
       9 -> 24         0.12529

 Excited State  80:      Singlet-A"    32.8273 eV   37.77 nm  f=0.0221  <S**2>=0.000
       9 -> 25         0.68971

 Excited State  81:      Singlet-A'    32.9833 eV   37.59 nm  f=0.0035  <S**2>=0.000
       3 -> 14         0.35871
       4 -> 17         0.11296
       4 -> 19        -0.19518
       5 -> 19        -0.11349
       5 -> 21        -0.16484
       5 -> 22        -0.33442
       6 -> 20         0.15814
       7 -> 21         0.11313
       8 -> 23         0.30474

 Excited State  82:      Singlet-A"    33.1522 eV   37.40 nm  f=0.0307  <S**2>=0.000
       7 -> 24        -0.14571
       8 -> 24         0.68176

 Excited State  83:      Singlet-A'    33.9748 eV   36.49 nm  f=0.0342  <S**2>=0.000
       4 -> 18         0.68288

 Excited State  84:      Singlet-A'    34.6293 eV   35.80 nm  f=0.4530  <S**2>=0.000
       4 -> 19         0.11792
       7 -> 25        -0.18963
       8 -> 23         0.25645
       8 -> 25         0.58712
       9 -> 24         0.12536

 Excited State  85:      Singlet-A"    35.3320 eV   35.09 nm  f=0.0857  <S**2>=0.000
       4 -> 20         0.69890

 Excited State  86:      Singlet-A'    35.6294 eV   34.80 nm  f=0.2324  <S**2>=0.000
       4 -> 19         0.10982
       4 -> 21        -0.17071
       5 -> 25        -0.10408
       7 -> 23         0.47146
       8 -> 23         0.29265
       8 -> 25        -0.26221
       9 -> 24         0.18569

 Excited State  87:      Singlet-A'    35.7440 eV   34.69 nm  f=0.0650  <S**2>=0.000
       4 -> 21         0.39918
       5 -> 23         0.12892
       6 -> 24         0.18149
       7 -> 23         0.43433
       7 -> 25         0.12046
       8 -> 23        -0.11230
       8 -> 25         0.13779
       9 -> 24        -0.16647

 Excited State  88:      Singlet-A"    36.1411 eV   34.31 nm  f=0.0043  <S**2>=0.000
       6 -> 23         0.48012
       7 -> 24         0.49633
       8 -> 24         0.10276

 Excited State  89:      Singlet-A'    36.3397 eV   34.12 nm  f=0.0459  <S**2>=0.000
       4 -> 19        -0.27815
       4 -> 21         0.47073
       4 -> 22        -0.12661
       6 -> 24        -0.21613
       7 -> 25        -0.15282
       8 -> 23         0.12745
       8 -> 25        -0.10736
       9 -> 24         0.15611

 Excited State  90:      Singlet-A"    36.6967 eV   33.79 nm  f=0.1701  <S**2>=0.000
       6 -> 23         0.49741
       7 -> 24        -0.45930

 Excited State  91:      Singlet-A'    36.7482 eV   33.74 nm  f=0.0558  <S**2>=0.000
       3 -> 17        -0.17377
       4 -> 19         0.48387
       4 -> 21         0.25891
       4 -> 22         0.15660
       6 -> 20         0.11969
       6 -> 24        -0.15651
       7 -> 23        -0.14451
       9 -> 26         0.14220

 Excited State  92:      Singlet-A'    37.0132 eV   33.50 nm  f=0.0058  <S**2>=0.000
       4 -> 19        -0.15754
       4 -> 22         0.66995

 Excited State  93:      Singlet-A'    37.6049 eV   32.97 nm  f=0.1703  <S**2>=0.000
       5 -> 25        -0.10359
       6 -> 24         0.57420
       7 -> 23        -0.10165
       7 -> 25        -0.30318
       8 -> 25        -0.10747

 Excited State  94:      Singlet-A"    38.1715 eV   32.48 nm  f=0.0199  <S**2>=0.000
       5 -> 24         0.68518
       8 -> 26        -0.10780

 Excited State  95:      Singlet-A'    38.1936 eV   32.46 nm  f=0.2101  <S**2>=0.000
       5 -> 23         0.64080
       5 -> 25        -0.11318
       7 -> 25        -0.19162

 Excited State  96:      Singlet-A"    38.7172 eV   32.02 nm  f=0.0155  <S**2>=0.000
       6 -> 25         0.69262
       9 -> 25        -0.10578

 Excited State  97:      Singlet-A'    39.0705 eV   31.73 nm  f=0.1734  <S**2>=0.000
       3 -> 15        -0.16483
       3 -> 17         0.24948
       5 -> 23         0.11591
       5 -> 25        -0.13319
       6 -> 24         0.11230
       7 -> 25         0.39354
       9 -> 26         0.41676

 Excited State  98:      Singlet-A'    39.2403 eV   31.60 nm  f=0.0346  <S**2>=0.000
       3 -> 15         0.67357
       9 -> 26         0.19657

 Excited State  99:      Singlet-A"    39.6272 eV   31.29 nm  f=0.0216  <S**2>=0.000
       3 -> 16         0.70172

 Excited State 100:      Singlet-A'    39.7461 eV   31.19 nm  f=0.2502  <S**2>=0.000
       5 -> 25         0.48353
       7 -> 25        -0.23609
       9 -> 26         0.40391

 Excited State 101:      Singlet-A"    40.5312 eV   30.59 nm  f=0.0033  <S**2>=0.000
       5 -> 24         0.10102
       8 -> 26         0.69354

 Excited State 102:      Singlet-A'    40.5419 eV   30.58 nm  f=0.1086  <S**2>=0.000
       3 -> 17         0.59460
       4 -> 19         0.16818
       5 -> 25         0.18828
       9 -> 26        -0.19050

 Excited State 103:      Singlet-A"    41.1549 eV   30.13 nm  f=0.0008  <S**2>=0.000
       9 -> 27         0.69636

 Excited State 104:      Singlet-A'    41.6035 eV   29.80 nm  f=0.0198  <S**2>=0.000
       3 -> 17        -0.14853
       3 -> 18         0.36770
       3 -> 21         0.12613
       5 -> 23         0.13742
       5 -> 25         0.33379
       6 -> 24         0.11630
       6 -> 26         0.10537
       7 -> 23        -0.10210
       7 -> 25         0.17643
       8 -> 23         0.13261
       8 -> 27         0.12220
       9 -> 24         0.14462
       9 -> 26        -0.15973

 Excited State 105:      Singlet-A'    43.0410 eV   28.81 nm  f=0.2032  <S**2>=0.000
       4 -> 23         0.64991
       8 -> 27         0.23075

 The electronic state is 1-A'.
 Alpha  occ. eigenvalues --  -19.24637 -10.33637  -1.10545  -0.76588  -0.59406
 Alpha  occ. eigenvalues --   -0.52226  -0.50858  -0.41132  -0.35137
 Alpha virt. eigenvalues --    0.14114   0.18082   0.21924   0.22075   0.28682
 Alpha virt. eigenvalues --    0.54335   0.55829   0.57350   0.68217   0.73465
 Alpha virt. eigenvalues --    0.74506   0.76703   0.80827   1.02969   1.05231

 Mulliken charges:
               1
     1  C    0.099823
     2  O   -0.353668
     3  H    0.018940
     4  H    0.018940
     5  H    0.041252
     6  H    0.174713
 Sum of Mulliken charges =  -0.00000

 Dipole moment (field-independent basis, Debye):
    X=             -1.4381    Y=              0.8614    Z=             -0.0000  Tot=              1.6764
 Quadrupole moment (field-independent basis, Debye-Ang):
   XX=            -11.5615   YY=            -12.9699   ZZ=            -13.4522
   XY=              2.1088   XZ=             -0.0000   YZ=              0.0000

 Normal termination of Gaussian 16 at Sat Aug 14 07:22:46 2021.
