 Gaussian 16, Revision C.01,
 Gaussian 16:  EM64L-G16RevC.01  3-Jul-2019

 ----------------------------------------------------------------------
 #P TD(Nstates=10000) wB97XD/def2SVP SCF(maxcycles=100) Int(Grid=ultraf
 ine)
 ----------------------------------------------------------------------

 ---------------------
 xGDB7_00001_tier4.com
 ---------------------
 Symbolic Z-matrix:
 Charge =  0 Multiplicity = 1

                         Standard orientation:
 ---------------------------------------------------------------------
 Center     Atomic      Atomic             Coordinates (Angstroms)
 Number     Number       Type             X           Y           Z
 ---------------------------------------------------------------------
      1          7           0        0.000001   -0.000001    0.119780
      2          1           0       -0.521368   -0.779766   -0.279488
      3          1           0       -0.414630    0.841395   -0.279489
      4          1           0        0.935994   -0.061622   -0.279481
 ---------------------------------------------------------------------

 SCF Done:  E(RwB97XD) =  -56.4918860227     A.U. after   12 cycles

 Excitation energies and oscillator strengths:

 Excited State   1:      Singlet-A      7.4746 eV  165.87 nm  f=0.0406  <S**2>=0.000
       5 ->  6         0.70593
 This state for optimization and/or second-order correction.
 Total Energy, E(TD-HF/TD-DFT) =  -56.2171992851
 Copying the excited state density for this state as the 1-particle RhoCI density.

 Excited State   2:      Singlet-A      9.7000 eV  127.82 nm  f=0.0324  <S**2>=0.000
       5 ->  7         0.69978

 Excited State   3:      Singlet-A      9.7000 eV  127.82 nm  f=0.0324  <S**2>=0.000
       5 ->  8         0.69978

 Excited State   4:      Singlet-A     12.8433 eV   96.54 nm  f=0.2180  <S**2>=0.000
       4 ->  6         0.70623

 Excited State   5:      Singlet-A     12.8434 eV   96.54 nm  f=0.2180  <S**2>=0.000
       3 ->  6         0.70623

 Excited State   6:      Singlet-A     14.8973 eV   83.23 nm  f=0.0000  <S**2>=0.000
       3 ->  7         0.18929
       3 ->  8         0.46118
       4 ->  7         0.46156
       4 ->  8        -0.18935

 Excited State   7:      Singlet-A     15.0845 eV   82.19 nm  f=0.1697  <S**2>=0.000
       3 ->  7         0.49434
       4 ->  8         0.49436

 Excited State   8:      Singlet-A     15.0845 eV   82.19 nm  f=0.1697  <S**2>=0.000
       3 ->  8         0.49452
       4 ->  7        -0.49417

 Excited State   9:      Singlet-A     16.5878 eV   74.74 nm  f=0.1438  <S**2>=0.000
       3 ->  7         0.45051
       3 ->  8        -0.18486
       4 ->  7        -0.18485
       4 ->  8        -0.45048
       5 -> 12        -0.13338

 Excited State  10:      Singlet-A     19.6586 eV   63.07 nm  f=0.0584  <S**2>=0.000
       5 ->  9         0.69700

 Excited State  11:      Singlet-A     19.6588 eV   63.07 nm  f=0.0584  <S**2>=0.000
       5 -> 10         0.69700

 Excited State  12:      Singlet-A     23.0004 eV   53.91 nm  f=0.0296  <S**2>=0.000
       2 ->  6         0.33813
       5 -> 11         0.61719

 Excited State  13:      Singlet-A     24.2326 eV   51.16 nm  f=0.0081  <S**2>=0.000
       2 ->  6         0.58642
       5 -> 11        -0.33481
       5 -> 12        -0.19275

 Excited State  14:      Singlet-A     24.8242 eV   49.94 nm  f=0.0000  <S**2>=0.000
       3 ->  9         0.49837
       4 -> 10        -0.49837

 Excited State  15:      Singlet-A     25.7740 eV   48.10 nm  f=0.1599  <S**2>=0.000
       2 ->  7         0.26832
       2 ->  8         0.53118
       3 ->  9        -0.16369
       3 -> 10        -0.18595
       4 ->  9         0.18802
       4 -> 10        -0.16381
       4 -> 11        -0.14338

 Excited State  16:      Singlet-A     25.7740 eV   48.10 nm  f=0.1599  <S**2>=0.000
       2 ->  7         0.53120
       2 ->  8        -0.26832
       3 ->  9         0.18704
       3 -> 10        -0.16269
       3 -> 11         0.14337
       4 ->  9         0.16475
       4 -> 10         0.18692

 Excited State  17:      Singlet-A     25.8007 eV   48.05 nm  f=0.1492  <S**2>=0.000
       3 -> 10         0.47579
       4 ->  9         0.47439
       5 -> 12        -0.19192

 Excited State  18:      Singlet-A     26.5864 eV   46.63 nm  f=0.1375  <S**2>=0.000
       2 ->  8         0.36852
       3 ->  9         0.34663
       3 -> 10         0.20178
       4 ->  9        -0.20171
       4 -> 10         0.34664
       4 -> 11         0.14222

 Excited State  19:      Singlet-A     26.5864 eV   46.63 nm  f=0.1375  <S**2>=0.000
       2 ->  7         0.36848
       3 ->  9        -0.20175
       3 -> 10         0.34670
       3 -> 11        -0.14223
       4 ->  9        -0.34660
       4 -> 10        -0.20176

 Excited State  20:      Singlet-A     27.4788 eV   45.12 nm  f=0.0006  <S**2>=0.000
       2 ->  6         0.16052
       3 -> 10         0.11984
       3 -> 13        -0.19395
       4 ->  9         0.11980
       4 -> 14        -0.19395
       5 -> 12         0.58897

 Excited State  21:      Singlet-A     27.5334 eV   45.03 nm  f=0.0174  <S**2>=0.000
       5 -> 13         0.70268

 Excited State  22:      Singlet-A     27.5335 eV   45.03 nm  f=0.0174  <S**2>=0.000
       5 -> 14         0.70268

 Excited State  23:      Singlet-A     29.2457 eV   42.39 nm  f=0.2271  <S**2>=0.000
       3 -> 10        -0.10739
       3 -> 11        -0.16624
       4 ->  9         0.10738
       4 -> 11         0.61648
       4 -> 12        -0.21594

 Excited State  24:      Singlet-A     29.2458 eV   42.39 nm  f=0.2271  <S**2>=0.000
       3 ->  9        -0.10739
       3 -> 11         0.61648
       3 -> 12        -0.21592
       4 -> 10        -0.10739
       4 -> 11         0.16624

 Excited State  25:      Singlet-A     30.5436 eV   40.59 nm  f=0.1133  <S**2>=0.000
       4 -> 11         0.21098
       4 -> 12         0.66934

 Excited State  26:      Singlet-A     30.5437 eV   40.59 nm  f=0.1133  <S**2>=0.000
       3 -> 11         0.21096
       3 -> 12         0.66934

 Excited State  27:      Singlet-A     30.8734 eV   40.16 nm  f=0.5036  <S**2>=0.000
       5 -> 15         0.69447

 Excited State  28:      Singlet-A     33.0370 eV   37.53 nm  f=0.0109  <S**2>=0.000
       3 -> 13        -0.47095
       3 -> 14         0.16269
       4 -> 13         0.16320
       4 -> 14         0.47108

 Excited State  29:      Singlet-A     33.0370 eV   37.53 nm  f=0.0109  <S**2>=0.000
       3 -> 13         0.16308
       3 -> 14         0.47044
       4 -> 13         0.47160
       4 -> 14        -0.16280

 Excited State  30:      Singlet-A     33.0971 eV   37.46 nm  f=0.0000  <S**2>=0.000
       3 -> 13        -0.12098
       3 -> 14         0.48520
       4 -> 13        -0.48390
       4 -> 14        -0.12087

 Excited State  31:      Singlet-A     35.6040 eV   34.82 nm  f=0.0046  <S**2>=0.000
       2 ->  9        -0.13935
       3 -> 15         0.18083
       4 -> 15         0.65404
       5 -> 17        -0.12451

 Excited State  32:      Singlet-A     35.6041 eV   34.82 nm  f=0.0046  <S**2>=0.000
       2 -> 10        -0.13931
       3 -> 15         0.65405
       4 -> 15        -0.18083
       5 -> 16         0.12453

 Excited State  33:      Singlet-A     36.2165 eV   34.23 nm  f=0.0036  <S**2>=0.000
       2 ->  9         0.68338
       4 -> 15         0.12393
       5 -> 17        -0.10575

 Excited State  34:      Singlet-A     36.2167 eV   34.23 nm  f=0.0036  <S**2>=0.000
       2 -> 10         0.68339
       3 -> 15         0.12389
       5 -> 16         0.10575

 Excited State  35:      Singlet-A     37.1164 eV   33.40 nm  f=0.0149  <S**2>=0.000
       2 -> 11         0.42495
       3 -> 13         0.35927
       4 -> 14         0.35926
       5 -> 12         0.16179

 Excited State  36:      Singlet-A     38.2936 eV   32.38 nm  f=0.3708  <S**2>=0.000
       3 -> 15        -0.12915
       5 -> 16         0.66713

 Excited State  37:      Singlet-A     38.2939 eV   32.38 nm  f=0.3708  <S**2>=0.000
       4 -> 15         0.12913
       5 -> 17         0.66713

 Excited State  38:      Singlet-A     41.1510 eV   30.13 nm  f=0.1572  <S**2>=0.000
       2 -> 11        -0.25947
       2 -> 12         0.63292

 Excited State  39:      Singlet-A     42.5060 eV   29.17 nm  f=0.0146  <S**2>=0.000
       2 -> 11         0.47030
       2 -> 12         0.29808
       2 -> 15        -0.24301
       3 -> 13        -0.21145
       4 -> 14        -0.21145
       5 -> 12        -0.15593

 Excited State  40:      Singlet-A     42.7394 eV   29.01 nm  f=0.0000  <S**2>=0.000
       3 -> 17         0.49208
       4 -> 16         0.49219

 Excited State  41:      Singlet-A     43.8235 eV   28.29 nm  f=0.8584  <S**2>=0.000
       2 -> 13        -0.30198
       2 -> 14        -0.20380
       3 -> 16         0.22632
       3 -> 17         0.35243
       4 -> 16        -0.35240
       4 -> 17         0.22623

 Excited State  42:      Singlet-A     43.8236 eV   28.29 nm  f=0.8584  <S**2>=0.000
       2 -> 13        -0.20384
       2 -> 14         0.30201
       3 -> 16         0.35240
       3 -> 17        -0.22634
       4 -> 16         0.22619
       4 -> 17         0.35238

 Excited State  43:      Singlet-A     44.3246 eV   27.97 nm  f=0.0306  <S**2>=0.000
       2 -> 13         0.59343
       2 -> 14         0.11650
       3 -> 16         0.20445
       3 -> 17         0.13983
       4 -> 16        -0.13986
       4 -> 17         0.20432

 Excited State  44:      Singlet-A     44.3246 eV   27.97 nm  f=0.0306  <S**2>=0.000
       2 -> 13        -0.11647
       2 -> 14         0.59342
       3 -> 16        -0.13989
       3 -> 17         0.20440
       4 -> 16        -0.20435
       4 -> 17        -0.13987

 Excited State  45:      Singlet-A     44.6390 eV   27.77 nm  f=0.7886  <S**2>=0.000
       3 -> 16        -0.47301
       4 -> 17         0.47315
       5 -> 19        -0.11570

 Excited State  46:      Singlet-A     47.7971 eV   25.94 nm  f=0.0958  <S**2>=0.000
       2 -> 11         0.13413
       2 -> 15         0.65300
       3 -> 13        -0.11073
       4 -> 14        -0.11073

 Excited State  47:      Singlet-A     48.6635 eV   25.48 nm  f=0.0000  <S**2>=0.000
       5 -> 18         0.70704

 Excited State  48:      Singlet-A     51.7865 eV   23.94 nm  f=0.6426  <S**2>=0.000
       5 -> 19         0.68886

 Excited State  49:      Singlet-A     53.9668 eV   22.97 nm  f=0.0049  <S**2>=0.000
       2 -> 16         0.52086
       4 -> 18         0.32638
       5 -> 20         0.34234

 Excited State  50:      Singlet-A     53.9670 eV   22.97 nm  f=0.0049  <S**2>=0.000
       2 -> 17         0.52082
       3 -> 18         0.32642
       5 -> 21        -0.34234

 Excited State  51:      Singlet-A     54.3294 eV   22.82 nm  f=0.0066  <S**2>=0.000
       2 -> 16        -0.33676
       3 -> 19        -0.11703
       4 -> 18        -0.10543
       5 -> 20         0.60015

 Excited State  52:      Singlet-A     54.3297 eV   22.82 nm  f=0.0066  <S**2>=0.000
       2 -> 17         0.33665
       3 -> 18         0.10564
       4 -> 19        -0.11710
       5 -> 21         0.60016

 Excited State  53:      Singlet-A     54.3975 eV   22.79 nm  f=0.0705  <S**2>=0.000
       2 -> 16        -0.27992
       2 -> 17        -0.18702
       3 -> 18         0.42214
       4 -> 18         0.43908

 Excited State  54:      Singlet-A     54.3977 eV   22.79 nm  f=0.0705  <S**2>=0.000
       2 -> 16         0.18701
       2 -> 17        -0.28013
       3 -> 18         0.43898
       4 -> 18        -0.42212

 Excited State  55:      Singlet-A     56.0904 eV   22.10 nm  f=0.0761  <S**2>=0.000
       3 -> 19         0.34420
       4 -> 19         0.59316
       5 -> 21         0.12487

 Excited State  56:      Singlet-A     56.0905 eV   22.10 nm  f=0.0761  <S**2>=0.000
       3 -> 19         0.59316
       4 -> 19        -0.34419
       5 -> 20         0.12485

 Excited State  57:      Singlet-A     59.4869 eV   20.84 nm  f=0.0242  <S**2>=0.000
       3 -> 20         0.40721
       3 -> 21         0.28158
       4 -> 20         0.28423
       4 -> 21        -0.40539

 Excited State  58:      Singlet-A     59.4871 eV   20.84 nm  f=0.0242  <S**2>=0.000
       3 -> 20        -0.28261
       3 -> 21         0.40481
       4 -> 20         0.40778
       4 -> 21         0.28320

 Excited State  59:      Singlet-A     59.5276 eV   20.83 nm  f=0.0000  <S**2>=0.000
       3 -> 21         0.49273
       4 -> 20        -0.48860

 Excited State  60:      Singlet-A     59.5734 eV   20.81 nm  f=0.0153  <S**2>=0.000
       3 -> 20         0.49025
       4 -> 21         0.49129

 Excited State  61:      Singlet-A     62.0414 eV   19.98 nm  f=0.0298  <S**2>=0.000
       5 -> 22         0.69602

 Excited State  62:      Singlet-A     62.0415 eV   19.98 nm  f=0.0298  <S**2>=0.000
       5 -> 23         0.69602

 Excited State  63:      Singlet-A     64.6844 eV   19.17 nm  f=0.0000  <S**2>=0.000
       2 -> 18         0.70443

 Excited State  64:      Singlet-A     66.7469 eV   18.58 nm  f=0.0344  <S**2>=0.000
       2 -> 19         0.69598

 Excited State  65:      Singlet-A     67.1023 eV   18.48 nm  f=0.0000  <S**2>=0.000
       3 -> 22         0.39467
       3 -> 23         0.30563
       4 -> 22         0.30575
       4 -> 23        -0.39464

 Excited State  66:      Singlet-A     67.8357 eV   18.28 nm  f=0.0138  <S**2>=0.000
       3 -> 22         0.48700
       4 -> 23         0.48701

 Excited State  67:      Singlet-A     67.8357 eV   18.28 nm  f=0.0138  <S**2>=0.000
       3 -> 23        -0.48683
       4 -> 22         0.48717

 Excited State  68:      Singlet-A     68.0498 eV   18.22 nm  f=0.0239  <S**2>=0.000
       2 -> 19        -0.11510
       3 -> 22        -0.29677
       3 -> 23         0.38348
       4 -> 22         0.38296
       4 -> 23         0.29691

 Excited State  69:      Singlet-A     70.0996 eV   17.69 nm  f=0.0169  <S**2>=0.000
       2 -> 20         0.69810
       2 -> 21         0.10673

 Excited State  70:      Singlet-A     70.0999 eV   17.69 nm  f=0.0169  <S**2>=0.000
       2 -> 20        -0.10673
       2 -> 21         0.69810

 Excited State  71:      Singlet-A     72.3067 eV   17.15 nm  f=0.0784  <S**2>=0.000
       5 -> 24         0.69688

 Excited State  72:      Singlet-A     76.8564 eV   16.13 nm  f=0.0008  <S**2>=0.000
       4 -> 24         0.69835

 Excited State  73:      Singlet-A     76.8565 eV   16.13 nm  f=0.0008  <S**2>=0.000
       3 -> 24         0.69835

 Excited State  74:      Singlet-A     78.2300 eV   15.85 nm  f=0.0105  <S**2>=0.000
       2 -> 22         0.70132

 Excited State  75:      Singlet-A     78.2302 eV   15.85 nm  f=0.0105  <S**2>=0.000
       2 -> 23         0.70132

 Excited State  76:      Singlet-A     81.1635 eV   15.28 nm  f=0.0258  <S**2>=0.000
       5 -> 25         0.69084

 Excited State  77:      Singlet-A     81.1636 eV   15.28 nm  f=0.0258  <S**2>=0.000
       5 -> 26         0.69084

 Excited State  78:      Singlet-A     83.4492 eV   14.86 nm  f=0.0716  <S**2>=0.000
       3 -> 26         0.15768
       4 -> 25         0.15772
       5 -> 27         0.66620

 Excited State  79:      Singlet-A     85.5904 eV   14.49 nm  f=0.0000  <S**2>=0.000
       3 -> 25         0.48349
       3 -> 26        -0.12700
       4 -> 25        -0.12701
       4 -> 26        -0.48340

 Excited State  80:      Singlet-A     86.7031 eV   14.30 nm  f=0.0219  <S**2>=0.000
       3 -> 25         0.27615
       3 -> 26        -0.38748
       3 -> 27         0.17053
       4 -> 25         0.38758
       4 -> 26         0.27617

 Excited State  81:      Singlet-A     86.7033 eV   14.30 nm  f=0.0219  <S**2>=0.000
       3 -> 25         0.38749
       3 -> 26         0.27616
       4 -> 25        -0.27615
       4 -> 26         0.38757
       4 -> 27         0.17053

 Excited State  82:      Singlet-A     87.4694 eV   14.17 nm  f=0.0802  <S**2>=0.000
       2 -> 24         0.13734
       3 -> 25         0.11701
       3 -> 26         0.44554
       4 -> 25         0.44547
       4 -> 26        -0.11706
       5 -> 27        -0.21620

 Excited State  83:      Singlet-A     88.0119 eV   14.09 nm  f=0.0227  <S**2>=0.000
       2 -> 24         0.69237

 Excited State  84:      Singlet-A     88.2530 eV   14.05 nm  f=0.0230  <S**2>=0.000
       4 -> 27         0.67844

 Excited State  85:      Singlet-A     88.2532 eV   14.05 nm  f=0.0230  <S**2>=0.000
       3 -> 27         0.67844

 Excited State  86:      Singlet-A     94.8842 eV   13.07 nm  f=0.0640  <S**2>=0.000
       5 -> 28         0.69616

 Excited State  87:      Singlet-A     94.8846 eV   13.07 nm  f=0.0640  <S**2>=0.000
       5 -> 29         0.69616

 Excited State  88:      Singlet-A     97.0818 eV   12.77 nm  f=0.0012  <S**2>=0.000
       2 -> 25         0.70385

 Excited State  89:      Singlet-A     97.0821 eV   12.77 nm  f=0.0012  <S**2>=0.000
       2 -> 26         0.70385

 Excited State  90:      Singlet-A     99.3572 eV   12.48 nm  f=0.0205  <S**2>=0.000
       2 -> 27         0.70634

 Excited State  91:      Singlet-A    100.0312 eV   12.39 nm  f=0.0000  <S**2>=0.000
       3 -> 28         0.10864
       3 -> 29        -0.48770
       4 -> 28         0.48823
       4 -> 29         0.10864

 Excited State  92:      Singlet-A    100.6094 eV   12.32 nm  f=0.0543  <S**2>=0.000
       3 -> 28         0.40459
       3 -> 29        -0.28512
       4 -> 28        -0.28492
       4 -> 29        -0.40410

 Excited State  93:      Singlet-A    100.6095 eV   12.32 nm  f=0.0543  <S**2>=0.000
       3 -> 28         0.28508
       3 -> 29         0.40459
       4 -> 28         0.40411
       4 -> 29        -0.28496

 Excited State  94:      Singlet-A    101.0602 eV   12.27 nm  f=0.0436  <S**2>=0.000
       3 -> 28         0.48521
       3 -> 29         0.10812
       4 -> 28        -0.10804
       4 -> 29         0.48569

 Excited State  95:      Singlet-A    110.8761 eV   11.18 nm  f=0.0167  <S**2>=0.000
       2 -> 28         0.70421

 Excited State  96:      Singlet-A    110.8766 eV   11.18 nm  f=0.0167  <S**2>=0.000
       2 -> 29         0.70421

 The electronic state is 1-A.
 Alpha  occ. eigenvalues --  -14.41510  -0.93028  -0.53437  -0.53437  -0.33819
 Alpha virt. eigenvalues --    0.14165   0.22672   0.22672   0.61059   0.61060
 Alpha virt. eigenvalues --    0.74293   0.83697   0.93125   0.93125   1.01195
 Alpha virt. eigenvalues --    1.28496   1.28497   1.69645   1.76656   1.89740

 Mulliken charges:
               1
     1  N   -0.293556
     2  H    0.097851
     3  H    0.097850
     4  H    0.097855
 Sum of Mulliken charges =   0.00000

 Dipole moment (field-independent basis, Debye):
    X=              0.0000    Y=              0.0000    Z=             -1.7902  Tot=              1.7902
 Quadrupole moment (field-independent basis, Debye-Ang):
   XX=             -6.1216   YY=             -6.1217   ZZ=             -8.5639
   XY=              0.0000   XZ=              0.0000   YZ=             -0.0000

 Normal termination of Gaussian 16 at Sat Aug 14 23:29:34 2021.
