 Gaussian 16, Revision C.01,
 Gaussian 16:  EM64L-G16RevC.01  3-Jul-2019

 ----------------------------------------------------------------------
 #P TD(Nstates=10000) wB97XD/def2SVP SCF(maxcycles=100) Int(Grid=ultraf
 ine)
 ----------------------------------------------------------------------

 ---------------------
 xGDB7_00001_tier4.com
 ---------------------
 Symbolic Z-matrix:
 Charge =  0 Multiplicity = 1

                         Standard orientation:
 ---------------------------------------------------------------------
 Center     Atomic      Atomic             Coordinates (Angstroms)
 Number     Number       Type             X           Y           Z
 ---------------------------------------------------------------------
      1          6           0        0.000000    0.000000   -1.178077
      2          6           0        0.000000    0.000000    0.280701
      3          7           0        0.000000    0.000000    1.435775
      4          1           0       -0.000000    1.031632   -1.555391
      5          1           0       -0.893420   -0.515816   -1.555391
      6          1           0        0.893420   -0.515816   -1.555391
 ---------------------------------------------------------------------

 SCF Done:  E(RwB97XD) =  -132.605192607     A.U. after   13 cycles

 Excitation energies and oscillator strengths:

 Excited state symmetry could not be determined.
 Excited State   1:      Singlet-?Sym    7.8796 eV  157.35 nm  f=0.0000  <S**2>=0.000
      10 -> 13         0.48672
      10 -> 16        -0.10064
      11 -> 12         0.48672
      11 -> 15        -0.10064
 This state for optimization and/or second-order correction.
 Total Energy, E(TD-HF/TD-DFT) =  -132.315624242
 Copying the excited state density for this state as the 1-particle RhoCI density.

 Excited state symmetry could not be determined.
 Excited State   2:      Singlet-?Sym    8.2732 eV  149.86 nm  f=0.0024  <S**2>=0.000
      10 -> 12         0.48836
      11 -> 13         0.48837

 Excited state symmetry could not be determined.
 Excited State   3:      Singlet-?Sym    8.2732 eV  149.86 nm  f=0.0024  <S**2>=0.000
      10 -> 13        -0.48837
      11 -> 12         0.48836

 Excited State   4:      Singlet-E      9.6317 eV  128.72 nm  f=0.0223  <S**2>=0.000
       9 -> 12         0.69142
       9 -> 15        -0.12900

 Excited State   5:      Singlet-E      9.6317 eV  128.72 nm  f=0.0223  <S**2>=0.000
       9 -> 13         0.69142
       9 -> 16        -0.12900

 Excited State   6:      Singlet-E     10.2031 eV  121.52 nm  f=0.0003  <S**2>=0.000
      11 -> 14         0.69156

 Excited State   7:      Singlet-E     10.2031 eV  121.52 nm  f=0.0003  <S**2>=0.000
      10 -> 14         0.69156

 Excited State   8:      Singlet-A1    11.3559 eV  109.18 nm  f=0.2722  <S**2>=0.000
       9 -> 14         0.45048
       9 -> 17        -0.15727
      10 -> 12         0.33451
      10 -> 15         0.14195
      11 -> 13        -0.33451
      11 -> 16        -0.14195

 Excited State   9:      Singlet-A1    11.6656 eV  106.28 nm  f=0.4678  <S**2>=0.000
       9 -> 14         0.50412
      10 -> 12        -0.26439
      10 -> 15        -0.20637
      11 -> 13         0.26439
      11 -> 16         0.20637

 Excited state symmetry could not be determined.
 Excited State  10:      Singlet-?Sym   12.1197 eV  102.30 nm  f=0.0000  <S**2>=0.000
       7 -> 12         0.24978
       8 -> 13         0.24977
      10 -> 13         0.10962
      10 -> 16         0.41637
      11 -> 12         0.10963
      11 -> 15         0.41641

 Excited state symmetry could not be determined.
 Excited State  11:      Singlet-?Sym   12.2602 eV  101.13 nm  f=0.0539  <S**2>=0.000
       7 -> 12        -0.13505
       8 -> 13         0.13507
      10 -> 13         0.10053
      10 -> 16         0.46787
      11 -> 12        -0.10052
      11 -> 15        -0.46784

 Excited state symmetry could not be determined.
 Excited State  12:      Singlet-?Sym   12.2602 eV  101.13 nm  f=0.0539  <S**2>=0.000
       7 -> 13         0.13506
       8 -> 12         0.13505
      10 -> 12         0.10052
      10 -> 15         0.46785
      11 -> 13         0.10052
      11 -> 16         0.46786

 Excited State  13:      Singlet-E     12.7736 eV   97.06 nm  f=0.0926  <S**2>=0.000
       6 -> 13         0.14661
       7 -> 12        -0.11728
       7 -> 14         0.15762
       8 -> 13         0.11716
      11 -> 17         0.64007

 Excited State  14:      Singlet-E     12.7736 eV   97.06 nm  f=0.0926  <S**2>=0.000
       6 -> 12        -0.14660
       7 -> 13         0.11723
       8 -> 12         0.11724
       8 -> 14         0.15761
      10 -> 17         0.64006

 Excited state symmetry could not be determined.
 Excited State  15:      Singlet-?Sym   12.7974 eV   96.88 nm  f=0.0000  <S**2>=0.000
       7 -> 12         0.42975
       8 -> 13         0.42979
      10 -> 16        -0.25469
      11 -> 15        -0.25468

 Excited state symmetry could not be determined.
 Excited State  16:      Singlet-?Sym   12.9454 eV   95.77 nm  f=0.0412  <S**2>=0.000
       6 -> 12         0.13439
       7 -> 13         0.45755
       8 -> 12         0.45755
      10 -> 15        -0.13642
      10 -> 17        -0.14400
      11 -> 16        -0.13642

 Excited state symmetry could not be determined.
 Excited State  17:      Singlet-?Sym   12.9454 eV   95.77 nm  f=0.0412  <S**2>=0.000
       6 -> 13         0.13439
       7 -> 12         0.45755
       8 -> 13        -0.45755
      10 -> 16         0.13642
      11 -> 15        -0.13642
      11 -> 17         0.14398

 Excited state symmetry could not be determined.
 Excited State  18:      Singlet-?Sym   13.0646 eV   94.90 nm  f=0.2590  <S**2>=0.000
       7 -> 13        -0.29455
       8 -> 12         0.29455
       9 -> 17        -0.16616
      10 -> 12         0.12813
      10 -> 15        -0.35302
      11 -> 13        -0.12813
      11 -> 16         0.35303

 Excited State  19:      Singlet-E     13.3551 eV   92.84 nm  f=0.1898  <S**2>=0.000
       8 -> 14         0.67598
      10 -> 17        -0.15940

 Excited State  20:      Singlet-E     13.3551 eV   92.84 nm  f=0.1898  <S**2>=0.000
       7 -> 14         0.67598
      11 -> 17        -0.15940

 Excited State  21:      Singlet-E     13.7243 eV   90.34 nm  f=0.0232  <S**2>=0.000
       9 -> 13         0.12886
       9 -> 16         0.68677

 Excited State  22:      Singlet-E     13.7243 eV   90.34 nm  f=0.0232  <S**2>=0.000
       9 -> 12         0.12886
       9 -> 15         0.68677

 Excited State  23:      Singlet-A1    13.8530 eV   89.50 nm  f=0.0234  <S**2>=0.000
       7 -> 13        -0.29087
       8 -> 12         0.29087
       9 -> 14         0.15149
       9 -> 17         0.50910

 Excited State  24:      Singlet-E     14.3990 eV   86.11 nm  f=0.2174  <S**2>=0.000
       6 -> 12         0.48693
      10 -> 18         0.47814

 Excited State  25:      Singlet-E     14.3990 eV   86.11 nm  f=0.2174  <S**2>=0.000
       6 -> 13         0.48693
      11 -> 18        -0.47814

 Excited State  26:      Singlet-A1    14.6260 eV   84.77 nm  f=0.2187  <S**2>=0.000
       6 -> 14        -0.25953
       6 -> 18         0.10403
       7 -> 13         0.23687
       8 -> 12        -0.23689
       9 -> 17         0.32502
       9 -> 18         0.17425
      10 -> 12         0.18245
      10 -> 15        -0.20284
      11 -> 13        -0.18245
      11 -> 16         0.20284

 Excited State  27:      Singlet-E     14.6595 eV   84.58 nm  f=0.0305  <S**2>=0.000
       6 -> 12        -0.44467
       8 -> 14        -0.11019
      10 -> 17        -0.13374
      10 -> 18         0.49246

 Excited State  28:      Singlet-E     14.6595 eV   84.58 nm  f=0.0305  <S**2>=0.000
       6 -> 13         0.44467
       7 -> 14        -0.11019
      11 -> 17        -0.13373
      11 -> 18         0.49246

 Excited State  29:      Singlet-A1    14.8111 eV   83.71 nm  f=0.3838  <S**2>=0.000
       6 -> 14         0.64261
       9 -> 17         0.20652

 Excited state symmetry could not be determined.
 Excited State  30:      Singlet-?Sym   15.3366 eV   80.84 nm  f=0.0000  <S**2>=0.000
       7 -> 15         0.49703
       8 -> 16         0.49690

 Excited state symmetry could not be determined.
 Excited State  31:      Singlet-?Sym   15.4388 eV   80.31 nm  f=0.2026  <S**2>=0.000
       6 -> 13         0.11375
       7 -> 15        -0.47687
       8 -> 16         0.47701

 Excited state symmetry could not be determined.
 Excited State  32:      Singlet-?Sym   15.4389 eV   80.31 nm  f=0.2026  <S**2>=0.000
       6 -> 12        -0.11376
       7 -> 16         0.47694
       8 -> 15         0.47695

 Excited State  33:      Singlet-A1    16.1205 eV   76.91 nm  f=0.2254  <S**2>=0.000
       6 -> 17         0.16235
       7 -> 16         0.32625
       8 -> 15        -0.32628
       9 -> 18         0.49340

 Excited State  34:      Singlet-A1    16.1390 eV   76.82 nm  f=0.0102  <S**2>=0.000
       6 -> 17        -0.18854
       7 -> 16        -0.31591
       8 -> 15         0.31595
       9 -> 17        -0.16866
       9 -> 18         0.45261

 Excited State  35:      Singlet-E     16.1750 eV   76.65 nm  f=0.0444  <S**2>=0.000
       7 -> 17         0.68922

 Excited State  36:      Singlet-E     16.1751 eV   76.65 nm  f=0.0444  <S**2>=0.000
       8 -> 17         0.68922

 Excited State  37:      Singlet-E     16.7029 eV   74.23 nm  f=0.0047  <S**2>=0.000
       6 -> 16         0.69099

 Excited State  38:      Singlet-E     16.7029 eV   74.23 nm  f=0.0047  <S**2>=0.000
       6 -> 15         0.69099

 Excited State  39:      Singlet-E     17.9516 eV   69.07 nm  f=0.0891  <S**2>=0.000
       7 -> 18         0.69455

 Excited State  40:      Singlet-E     17.9516 eV   69.07 nm  f=0.0891  <S**2>=0.000
       8 -> 18         0.69455

 Excited State  41:      Singlet-A1    18.7545 eV   66.11 nm  f=0.5332  <S**2>=0.000
       5 -> 14         0.11520
       6 -> 17         0.60297
       7 -> 16        -0.15122
       8 -> 15         0.15122
      10 -> 19        -0.14408
      11 -> 20        -0.14408

 Excited State  42:      Singlet-A1    19.7659 eV   62.73 nm  f=0.0462  <S**2>=0.000
       6 -> 17         0.10875
       6 -> 18         0.66349

 Excited state symmetry could not be determined.
 Excited State  43:      Singlet-?Sym   20.4000 eV   60.78 nm  f=0.0199  <S**2>=0.000
      10 -> 19         0.45892
      10 -> 23         0.18389
      11 -> 20        -0.45892
      11 -> 22        -0.18389

 Excited state symmetry could not be determined.
 Excited State  44:      Singlet-?Sym   20.4000 eV   60.78 nm  f=0.0199  <S**2>=0.000
      10 -> 20         0.45894
      10 -> 22         0.18390
      11 -> 19         0.45891
      11 -> 23         0.18389

 Excited state symmetry could not be determined.
 Excited State  45:      Singlet-?Sym   20.4276 eV   60.69 nm  f=0.0000  <S**2>=0.000
      10 -> 20        -0.47852
      10 -> 22        -0.13774
      11 -> 19         0.47855
      11 -> 23         0.13775

 Excited State  46:      Singlet-E     21.3173 eV   58.16 nm  f=0.0077  <S**2>=0.000
       5 -> 13         0.66302
       9 -> 20         0.18984

 Excited State  47:      Singlet-E     21.3173 eV   58.16 nm  f=0.0077  <S**2>=0.000
       5 -> 12         0.66302
       9 -> 19        -0.18985

 Excited state symmetry could not be determined.
 Excited State  48:      Singlet-?Sym   21.7184 eV   57.09 nm  f=0.0589  <S**2>=0.000
       5 -> 14         0.18847
       6 -> 17         0.13223
       6 -> 18        -0.10365
      10 -> 19         0.43413
      11 -> 20         0.43413

 Excited State  49:      Singlet-E     21.8995 eV   56.62 nm  f=0.0447  <S**2>=0.000
       5 -> 13        -0.20473
       9 -> 20         0.62431
       9 -> 22         0.22475

 Excited State  50:      Singlet-E     21.8995 eV   56.62 nm  f=0.0447  <S**2>=0.000
       5 -> 12         0.20473
       9 -> 19         0.62431
       9 -> 23         0.22475

 Excited State  51:      Singlet-A1    22.3838 eV   55.39 nm  f=0.0653  <S**2>=0.000
       5 -> 14         0.65166
       6 -> 17        -0.12717
      10 -> 19        -0.11158
      11 -> 20        -0.11157

 Excited State  52:      Singlet-E     22.3908 eV   55.37 nm  f=0.0373  <S**2>=0.000
      10 -> 21         0.67998

 Excited State  53:      Singlet-E     22.3908 eV   55.37 nm  f=0.0373  <S**2>=0.000
      11 -> 21         0.67999

 Excited state symmetry could not be determined.
 Excited State  54:      Singlet-?Sym   22.6045 eV   54.85 nm  f=0.0000  <S**2>=0.000
       7 -> 19         0.15622
       8 -> 20        -0.15623
      10 -> 20        -0.12943
      10 -> 22         0.45628
      11 -> 19         0.12941
      11 -> 23        -0.45622

 Excited state symmetry could not be determined.
 Excited State  55:      Singlet-?Sym   22.6945 eV   54.63 nm  f=0.0590  <S**2>=0.000
      10 -> 20        -0.18227
      10 -> 22         0.45323
      11 -> 19        -0.18229
      11 -> 23         0.45330

 Excited state symmetry could not be determined.
 Excited State  56:      Singlet-?Sym   22.6945 eV   54.63 nm  f=0.0590  <S**2>=0.000
      10 -> 19        -0.18228
      10 -> 23         0.45327
      11 -> 20         0.18228
      11 -> 22        -0.45326

 Excited state symmetry could not be determined.
 Excited State  57:      Singlet-?Sym   23.6027 eV   52.53 nm  f=0.1447  <S**2>=0.000
       7 -> 20         0.11668
       8 -> 19         0.11669
       9 -> 27        -0.15527
       9 -> 28         0.11747
      10 -> 23         0.44145
      11 -> 22         0.44145

 Excited State  58:      Singlet-E     23.9056 eV   51.86 nm  f=0.1019  <S**2>=0.000
       4 -> 13         0.24505
       5 -> 16         0.41463
       6 -> 20         0.13635
       7 -> 19        -0.17617
       8 -> 20        -0.17693
       9 -> 22         0.39326

 Excited State  59:      Singlet-E     23.9056 eV   51.86 nm  f=0.1019  <S**2>=0.000
       4 -> 12         0.24505
       5 -> 15         0.41463
       6 -> 19        -0.13635
       7 -> 20         0.17654
       8 -> 19        -0.17656
       9 -> 23        -0.39325

 Excited state symmetry could not be determined.
 Excited State  60:      Singlet-?Sym   23.9212 eV   51.83 nm  f=0.0000  <S**2>=0.000
       7 -> 19         0.47303
       8 -> 20        -0.47277
      10 -> 22        -0.14748
      11 -> 23         0.14756

 Excited State  61:      Singlet-E     23.9934 eV   51.67 nm  f=0.0115  <S**2>=0.000
       5 -> 15         0.36179
       7 -> 20         0.12903
       8 -> 19        -0.12916
       9 -> 19        -0.20821
       9 -> 23         0.51856

 Excited State  62:      Singlet-E     23.9934 eV   51.67 nm  f=0.0115  <S**2>=0.000
       5 -> 16        -0.36180
       7 -> 19         0.12912
       8 -> 20         0.12907
       9 -> 20        -0.20821
       9 -> 22         0.51856

 Excited State  63:      Singlet-A1    24.0733 eV   51.50 nm  f=0.0810  <S**2>=0.000
       7 -> 20        -0.35335
       8 -> 19        -0.35329
       9 -> 21         0.46523

 Excited State  64:      Singlet-E     24.2721 eV   51.08 nm  f=0.0089  <S**2>=0.000
       4 -> 13         0.60472
       4 -> 16        -0.12502
       5 -> 16        -0.24962
      11 -> 27         0.14282

 Excited State  65:      Singlet-E     24.2721 eV   51.08 nm  f=0.0089  <S**2>=0.000
       4 -> 12         0.60472
       4 -> 15        -0.12502
       5 -> 15        -0.24962
      10 -> 27        -0.14283

 Excited state symmetry could not be determined.
 Excited State  66:      Singlet-?Sym   24.6674 eV   50.26 nm  f=0.1176  <S**2>=0.000
       5 -> 16         0.33512
       6 -> 20        -0.18716
       7 -> 19         0.39147
       8 -> 20         0.39145

 Excited state symmetry could not be determined.
 Excited State  67:      Singlet-?Sym   24.6674 eV   50.26 nm  f=0.1176  <S**2>=0.000
       5 -> 15         0.33512
       6 -> 19         0.18716
       7 -> 20        -0.39146
       8 -> 19         0.39147

 Excited State  68:      Singlet-A1    24.7037 eV   50.19 nm  f=0.1254  <S**2>=0.000
       7 -> 20         0.31798
       8 -> 19         0.31797
       9 -> 21         0.47172

 Excited State  69:      Singlet-A1    25.0552 eV   49.48 nm  f=0.2247  <S**2>=0.000
       5 -> 17         0.64746
       7 -> 22         0.13073
       8 -> 23         0.13074
       9 -> 27        -0.10542

 Excited State  70:      Singlet-E     25.2595 eV   49.08 nm  f=0.0070  <S**2>=0.000
       6 -> 19         0.64288
       7 -> 20         0.11407
       8 -> 19        -0.11405
      10 -> 24        -0.13797

 Excited State  71:      Singlet-E     25.2595 eV   49.08 nm  f=0.0070  <S**2>=0.000
       6 -> 20         0.64287
       7 -> 19         0.11406
       8 -> 20         0.11407
      11 -> 24        -0.13799

 Excited State  72:      Singlet-E     25.7402 eV   48.17 nm  f=0.0072  <S**2>=0.000
       4 -> 13        -0.10719
      10 -> 26         0.10121
      11 -> 24         0.57582
      11 -> 25        -0.10127
      11 -> 27         0.31438

 Excited State  73:      Singlet-E     25.7402 eV   48.17 nm  f=0.0072  <S**2>=0.000
       4 -> 12         0.10719
      10 -> 24         0.57581
      10 -> 25         0.10122
      10 -> 27         0.31442
      11 -> 26         0.10122

 Excited State  74:      Singlet-E     25.8677 eV   47.93 nm  f=0.0002  <S**2>=0.000
       7 -> 21         0.50400
      10 -> 26        -0.27214
      11 -> 24         0.14981
      11 -> 25         0.27208
      11 -> 27        -0.22736

 Excited State  75:      Singlet-E     25.8677 eV   47.93 nm  f=0.0002  <S**2>=0.000
       8 -> 21         0.50399
      10 -> 24         0.14985
      10 -> 25        -0.27213
      10 -> 27        -0.22731
      11 -> 26        -0.27213

 Excited state symmetry could not be determined.
 Excited State  76:      Singlet-?Sym   25.9110 eV   47.85 nm  f=0.0000  <S**2>=0.000
      10 -> 26         0.48169
      11 -> 25         0.48188

 Excited state symmetry could not be determined.
 Excited State  77:      Singlet-?Sym   25.9713 eV   47.74 nm  f=0.0073  <S**2>=0.000
       7 -> 21         0.26716
       7 -> 23        -0.18737
       8 -> 22        -0.18745
      10 -> 26         0.34858
      11 -> 25        -0.34836
      11 -> 27        -0.29235

 Excited state symmetry could not be determined.
 Excited State  78:      Singlet-?Sym   25.9713 eV   47.74 nm  f=0.0073  <S**2>=0.000
       7 -> 22        -0.18740
       8 -> 21         0.26722
       8 -> 23         0.18739
      10 -> 25         0.34846
      10 -> 27        -0.29234
      11 -> 26         0.34846

 Excited State  79:      Singlet-E     26.1517 eV   47.41 nm  f=0.0049  <S**2>=0.000
       4 -> 12         0.12169
       7 -> 22        -0.10901
       8 -> 21         0.33929
       8 -> 23         0.10899
      10 -> 24        -0.29339
      10 -> 27         0.44506
      10 -> 28        -0.21549

 Excited State  80:      Singlet-E     26.1517 eV   47.41 nm  f=0.0049  <S**2>=0.000
       4 -> 13        -0.12169
       7 -> 21         0.33929
       7 -> 23        -0.10900
       8 -> 22        -0.10900
      11 -> 24        -0.29340
      11 -> 27         0.44505
      11 -> 28        -0.21549

 Excited State  81:      Singlet-A1    26.1610 eV   47.39 nm  f=0.0463  <S**2>=0.000
       4 -> 14         0.65634
       9 -> 27        -0.12135

 Excited state symmetry could not be determined.
 Excited State  82:      Singlet-?Sym   26.3051 eV   47.13 nm  f=0.0080  <S**2>=0.000
      10 -> 25         0.46371
      11 -> 26        -0.46370

 Excited state symmetry could not be determined.
 Excited State  83:      Singlet-?Sym   26.5515 eV   46.70 nm  f=0.0000  <S**2>=0.000
       7 -> 23        -0.48758
       8 -> 22         0.48759

 Excited state symmetry could not be determined.
 Excited State  84:      Singlet-?Sym   26.6130 eV   46.59 nm  f=0.0005  <S**2>=0.000
       4 -> 14         0.14151
       5 -> 17        -0.11306
       5 -> 18         0.11398
       6 -> 21        -0.15339
       7 -> 22         0.40842
       8 -> 23         0.40843
       9 -> 27         0.22179
       9 -> 28        -0.11054

 Excited State  85:      Singlet-A1    26.6951 eV   46.44 nm  f=0.0051  <S**2>=0.000
       5 -> 18         0.57994
       6 -> 21         0.25005
       9 -> 27         0.18640

 Excited state symmetry could not be determined.
 Excited State  86:      Singlet-?Sym   26.9715 eV   45.97 nm  f=0.1890  <S**2>=0.000
       7 -> 23         0.39916
       7 -> 25         0.11010
       8 -> 22         0.39914
       8 -> 26        -0.11009
       9 -> 26         0.12553
      10 -> 26         0.17271
      11 -> 25        -0.17272
      11 -> 28        -0.15048

 Excited state symmetry could not be determined.
 Excited State  87:      Singlet-?Sym   26.9715 eV   45.97 nm  f=0.1891  <S**2>=0.000
       7 -> 22         0.39916
       7 -> 26        -0.11009
       8 -> 23        -0.39916
       8 -> 25        -0.11008
       9 -> 25        -0.12554
      10 -> 25         0.17271
      10 -> 28        -0.15044
      11 -> 26         0.17271

 Excited State  88:      Singlet-E     26.9959 eV   45.93 nm  f=0.0482  <S**2>=0.000
       7 -> 21         0.16246
      11 -> 27         0.15433
      11 -> 28         0.63487

 Excited State  89:      Singlet-E     26.9959 eV   45.93 nm  f=0.0482  <S**2>=0.000
       8 -> 21         0.16244
      10 -> 27         0.15433
      10 -> 28         0.63488

 Excited State  90:      Singlet-A1    27.1703 eV   45.63 nm  f=0.0830  <S**2>=0.000
       4 -> 14         0.11869
       5 -> 18        -0.30207
       6 -> 21         0.33836
       9 -> 24         0.36627
       9 -> 27         0.31244

 Excited State  91:      Singlet-A1    27.4545 eV   45.16 nm  f=0.0938  <S**2>=0.000
       5 -> 18         0.17569
       6 -> 21        -0.25587
       7 -> 26        -0.11745
       8 -> 25         0.11747
       9 -> 24         0.55983
       9 -> 27        -0.16092
       9 -> 28         0.11140

 Excited State  92:      Singlet-E     27.4752 eV   45.13 nm  f=0.0569  <S**2>=0.000
       6 -> 22         0.27046
       6 -> 26        -0.11486
       9 -> 26         0.62101

 Excited State  93:      Singlet-E     27.4752 eV   45.13 nm  f=0.0569  <S**2>=0.000
       6 -> 23        -0.27046
       6 -> 25        -0.11486
       9 -> 25         0.62101

 Excited State  94:      Singlet-E     27.6923 eV   44.77 nm  f=0.0228  <S**2>=0.000
       6 -> 23         0.64048
       9 -> 25         0.27673

 Excited State  95:      Singlet-E     27.6923 eV   44.77 nm  f=0.0228  <S**2>=0.000
       6 -> 22         0.64048
       9 -> 26        -0.27674

 Excited State  96:      Singlet-A1    28.1665 eV   44.02 nm  f=0.0000  <S**2>=0.000
       5 -> 17         0.11764
       6 -> 21        -0.37918
       7 -> 22        -0.13125
       8 -> 23        -0.13125
       9 -> 24        -0.13322
       9 -> 27         0.41815
       9 -> 28         0.23040

 The electronic state is 1-A1.
 Alpha  occ. eigenvalues --  -14.44350 -10.35418 -10.34186  -0.99762  -0.86938
 Alpha  occ. eigenvalues --   -0.60241  -0.55215  -0.55215  -0.44712  -0.41547
 Alpha  occ. eigenvalues --   -0.41547
 Alpha virt. eigenvalues --    0.11032   0.11032   0.12889   0.20908   0.20908
 Alpha virt. eigenvalues --    0.25341   0.30437   0.53887   0.53887   0.61298
 Alpha virt. eigenvalues --    0.62321   0.62321   0.70512   0.71876   0.71876

 Mulliken charges:
               1
     1  C    0.011606
     2  C   -0.277034
     3  N   -0.008644
     4  H    0.091357
     5  H    0.091357
     6  H    0.091357
 Sum of Mulliken charges =  -0.00000

 Dipole moment (field-independent basis, Debye):
    X=              0.0000    Y=              0.0000    Z=             -3.8461  Tot=              3.8461
 Quadrupole moment (field-independent basis, Debye-Ang):
   XX=            -17.3102   YY=            -17.3102   ZZ=            -20.4084
   XY=             -0.0000   XZ=              0.0000   YZ=             -0.0000

 Normal termination of Gaussian 16 at Sat Aug 14 23:20:15 2021.
