 Gaussian 16, Revision C.01,
 Gaussian 16:  EM64L-G16RevC.01  3-Jul-2019

 ----------------------------------------------------------------------
 #P TD(Nstates=10000) wB97XD/def2SVP SCF(maxcycles=100) Int(Grid=ultraf
 ine)
 ----------------------------------------------------------------------

 ---------------------
 xGDB7_00001_tier4.com
 ---------------------
 Symbolic Z-matrix:
 Charge =  0 Multiplicity = 1

                         Standard orientation:
 ---------------------------------------------------------------------
 Center     Atomic      Atomic             Coordinates (Angstroms)
 Number     Number       Type             X           Y           Z
 ---------------------------------------------------------------------
      1          6           0        0.000000    0.000000    0.761748
      2          6           0        0.000000    0.000000   -0.761748
      3          1           0       -1.024459    0.000000    1.164419
      4          1           0        0.512230    0.887208    1.164419
      5          1           0        0.512229   -0.887208    1.164419
      6          1           0       -0.512229    0.887208   -1.164419
      7          1           0       -0.512230   -0.887208   -1.164419
      8          1           0        1.024459   -0.000000   -1.164419
 ---------------------------------------------------------------------

 SCF Done:  E(RwB97XD) =  -79.7456978374     A.U. after   12 cycles

 Excitation energies and oscillator strengths:

 Excited State   1:      Singlet-EG    10.4744 eV  118.37 nm  f=0.0000  <S**2>=0.000
       8 -> 10        -0.33288
       9 -> 10         0.61635
 This state for optimization and/or second-order correction.
 Total Energy, E(TD-HF/TD-DFT) =  -79.3607709619
 Copying the excited state density for this state as the 1-particle RhoCI density.

 Excited State   2:      Singlet-EG    10.4744 eV  118.37 nm  f=0.0000  <S**2>=0.000
       8 -> 10         0.61635
       9 -> 10         0.33288

 Excited State   3:      Singlet-AG    11.4219 eV  108.55 nm  f=0.0000  <S**2>=0.000
       7 -> 10         0.70069

 Excited State   4:      Singlet-EU    11.8628 eV  104.52 nm  f=0.3211  <S**2>=0.000
       5 -> 10         0.20087
       8 -> 11         0.59235
       9 -> 11         0.31991

 Excited State   5:      Singlet-EU    11.8628 eV  104.52 nm  f=0.3211  <S**2>=0.000
       6 -> 10         0.20087
       8 -> 11        -0.31991
       9 -> 11         0.59235

 Excited State   6:      Singlet-AU    11.9745 eV  103.54 nm  f=0.0000  <S**2>=0.000
       8 -> 12        -0.19842
       8 -> 13         0.45349
       9 -> 12         0.45352
       9 -> 13         0.19840

 Excited State   7:      Singlet-AU    12.1637 eV  101.93 nm  f=0.2010  <S**2>=0.000
       7 -> 13        -0.11360
       8 -> 12         0.26753
       8 -> 13         0.41018
       9 -> 12        -0.41015
       9 -> 13         0.26755

 Excited State   8:      Singlet-AU    12.1637 eV  101.93 nm  f=0.2010  <S**2>=0.000
       7 -> 12         0.11361
       8 -> 12         0.41017
       8 -> 13        -0.26754
       9 -> 12         0.26754
       9 -> 13         0.41017

 Excited State   9:      Singlet-AU    12.4976 eV   99.21 nm  f=0.3804  <S**2>=0.000
       7 -> 11        -0.15631
       8 -> 12         0.44369
       8 -> 13         0.19412
       9 -> 12         0.19412
       9 -> 13        -0.44369

 Excited State  10:      Singlet-AU    12.6665 eV   97.88 nm  f=0.5495  <S**2>=0.000
       7 -> 11         0.68614

 Excited State  11:      Singlet-EU    12.7740 eV   97.06 nm  f=0.0577  <S**2>=0.000
       6 -> 10         0.13955
       7 -> 13         0.66733
       9 -> 16         0.11048

 Excited State  12:      Singlet-EU    12.7740 eV   97.06 nm  f=0.0577  <S**2>=0.000
       5 -> 10        -0.13954
       7 -> 12         0.66733
       8 -> 16        -0.11048

 Excited State  13:      Singlet-AG    12.8089 eV   96.80 nm  f=0.0000  <S**2>=0.000
       5 -> 13         0.12660
       6 -> 12         0.12661
       8 -> 14        -0.25553
       8 -> 15        -0.40974
       9 -> 14         0.40977
       9 -> 15        -0.25552

 Excited State  14:      Singlet-AG    12.9928 eV   95.43 nm  f=0.0000  <S**2>=0.000
       5 -> 13        -0.10589
       6 -> 12         0.10588
       8 -> 14        -0.20196
       8 -> 15         0.43717
       9 -> 14         0.43714
       9 -> 15         0.20198

 Excited State  15:      Singlet-AG    12.9928 eV   95.43 nm  f=0.0000  <S**2>=0.000
       5 -> 12        -0.10588
       6 -> 13        -0.10588
       8 -> 14        -0.43716
       8 -> 15        -0.20197
       9 -> 14        -0.20197
       9 -> 15         0.43716

 Excited State  16:      Singlet-EU    13.3005 eV   93.22 nm  f=0.1857  <S**2>=0.000
       6 -> 10         0.65367
       7 -> 13        -0.13643
       9 -> 11        -0.18086

 Excited State  17:      Singlet-EU    13.3005 eV   93.22 nm  f=0.1857  <S**2>=0.000
       5 -> 10         0.65367
       7 -> 12         0.13643
       8 -> 11        -0.18086

 Excited State  18:      Singlet-EG    13.5225 eV   91.69 nm  f=0.0000  <S**2>=0.000
       7 -> 15         0.69890

 Excited State  19:      Singlet-EG    13.5226 eV   91.69 nm  f=0.0000  <S**2>=0.000
       7 -> 14         0.69890

 Excited State  20:      Singlet-AG    13.6392 eV   90.90 nm  f=0.0000  <S**2>=0.000
       8 -> 14         0.41460
       8 -> 15        -0.25854
       9 -> 14         0.25854
       9 -> 15         0.41459

 Excited State  21:      Singlet-EG    14.6212 eV   84.80 nm  f=0.0000  <S**2>=0.000
       5 -> 11         0.69283

 Excited State  22:      Singlet-EG    14.6212 eV   84.80 nm  f=0.0000  <S**2>=0.000
       6 -> 11         0.69283

 Excited State  23:      Singlet-EU    14.6540 eV   84.61 nm  f=0.0672  <S**2>=0.000
       8 -> 16        -0.32144
       9 -> 16         0.59517

 Excited State  24:      Singlet-EU    14.6541 eV   84.61 nm  f=0.0672  <S**2>=0.000
       8 -> 16         0.59517
       9 -> 16         0.32144

 Excited State  25:      Singlet-AG    14.6962 eV   84.37 nm  f=0.0000  <S**2>=0.000
       5 -> 13         0.48249
       6 -> 12         0.48252
       8 -> 15         0.10813
       9 -> 14        -0.10814

 Excited State  26:      Singlet-AG    14.7755 eV   83.91 nm  f=0.0000  <S**2>=0.000
       5 -> 13         0.47889
       6 -> 12        -0.47886

 Excited State  27:      Singlet-AG    14.7755 eV   83.91 nm  f=0.0000  <S**2>=0.000
       5 -> 12         0.47888
       6 -> 13         0.47888

 Excited State  28:      Singlet-AU    15.4341 eV   80.33 nm  f=0.2598  <S**2>=0.000
       5 -> 14        -0.37128
       6 -> 15        -0.37126
       7 -> 16         0.45246

 Excited State  29:      Singlet-AU    15.5369 eV   79.80 nm  f=0.0000  <S**2>=0.000
       5 -> 15        -0.48953
       6 -> 14         0.48953

 Excited State  30:      Singlet-AG    15.6080 eV   79.44 nm  f=0.0000  <S**2>=0.000
       5 -> 12         0.48048
       6 -> 13        -0.48047
       7 -> 19         0.12464

 Excited State  31:      Singlet-AU    15.8527 eV   78.21 nm  f=0.3639  <S**2>=0.000
       5 -> 14        -0.48532
       6 -> 15         0.48533
       8 -> 16         0.10050

 Excited State  32:      Singlet-AU    15.8528 eV   78.21 nm  f=0.3639  <S**2>=0.000
       5 -> 15         0.48533
       6 -> 14         0.48532
       9 -> 16         0.10050

 Excited State  33:      Singlet-AU    16.5919 eV   74.73 nm  f=0.1524  <S**2>=0.000
       4 -> 10        -0.21385
       5 -> 14         0.30446
       6 -> 15         0.30446
       7 -> 16         0.47878
       8 -> 18         0.10125
       9 -> 17        -0.10125

 Excited State  34:      Singlet-EG    17.0958 eV   72.52 nm  f=0.0000  <S**2>=0.000
       6 -> 16         0.69773

 Excited State  35:      Singlet-EG    17.0958 eV   72.52 nm  f=0.0000  <S**2>=0.000
       5 -> 16         0.69773

 Excited State  36:      Singlet-AU    18.6500 eV   66.48 nm  f=0.0024  <S**2>=0.000
       4 -> 10         0.66007
       7 -> 16         0.13684
       8 -> 18         0.10266
       9 -> 17        -0.10266

 Excited State  37:      Singlet-AU    19.5692 eV   63.36 nm  f=0.0000  <S**2>=0.000
       8 -> 17         0.45603
       8 -> 18        -0.19896
       9 -> 17         0.19897
       9 -> 18         0.45601

 Excited State  38:      Singlet-EG    19.6328 eV   63.15 nm  f=0.0000  <S**2>=0.000
       4 -> 12         0.63320
       8 -> 19        -0.25831
       9 -> 19        -0.13951

 Excited State  39:      Singlet-EG    19.6328 eV   63.15 nm  f=0.0000  <S**2>=0.000
       4 -> 13         0.63320
       8 -> 19        -0.13951
       9 -> 19         0.25831

 Excited State  40:      Singlet-AG    19.8452 eV   62.48 nm  f=0.0000  <S**2>=0.000
       4 -> 11         0.68523

 Excited State  41:      Singlet-EU    19.8471 eV   62.47 nm  f=0.0700  <S**2>=0.000
       7 -> 17         0.46865
       8 -> 17        -0.30689
       8 -> 18        -0.20063
       9 -> 17        -0.20062
       9 -> 18         0.30692

 Excited State  42:      Singlet-EU    19.8471 eV   62.47 nm  f=0.0700  <S**2>=0.000
       7 -> 18         0.46864
       8 -> 17        -0.20063
       8 -> 18         0.30691
       9 -> 17         0.30691
       9 -> 18         0.20063

 Excited State  43:      Singlet-EG    19.9192 eV   62.24 nm  f=0.0000  <S**2>=0.000
       4 -> 12         0.29312
       8 -> 19         0.55839
       9 -> 19         0.30157

 Excited State  44:      Singlet-EG    19.9192 eV   62.24 nm  f=0.0000  <S**2>=0.000
       4 -> 13        -0.29312
       8 -> 19        -0.30158
       9 -> 19         0.55839

 Excited State  45:      Singlet-EU    20.6311 eV   60.10 nm  f=0.1041  <S**2>=0.000
       4 -> 14         0.57844
       7 -> 18         0.26149
       8 -> 17         0.10834
       8 -> 18        -0.16573
       9 -> 17        -0.16573
       9 -> 18        -0.10834

 Excited State  46:      Singlet-EU    20.6311 eV   60.10 nm  f=0.1041  <S**2>=0.000
       4 -> 15         0.57844
       7 -> 17        -0.26149
       8 -> 17        -0.16573
       8 -> 18        -0.10834
       9 -> 17        -0.10834
       9 -> 18         0.16573

 Excited State  47:      Singlet-EU    20.9458 eV   59.19 nm  f=0.0991  <S**2>=0.000
       4 -> 15         0.38739
       6 -> 19         0.15305
       7 -> 17         0.43549
       8 -> 17         0.20009
       8 -> 18         0.13079
       9 -> 17         0.13080
       9 -> 18        -0.20008

 Excited State  48:      Singlet-EU    20.9458 eV   59.19 nm  f=0.0991  <S**2>=0.000
       4 -> 14        -0.38739
       5 -> 19        -0.15305
       7 -> 18         0.43550
       8 -> 17         0.13079
       8 -> 18        -0.20008
       9 -> 17        -0.20007
       9 -> 18        -0.13079

 Excited State  49:      Singlet-AU    21.1671 eV   58.57 nm  f=0.8352  <S**2>=0.000
       3 -> 11        -0.10261
       7 -> 16         0.17740
       7 -> 22        -0.12168
       8 -> 17        -0.18405
       8 -> 18        -0.42182
       9 -> 17         0.42182
       9 -> 18        -0.18405

 Excited State  50:      Singlet-AG    21.2803 eV   58.26 nm  f=0.0000  <S**2>=0.000
       7 -> 19         0.64038
       8 -> 20        -0.13914
       9 -> 21        -0.13915

 Excited State  51:      Singlet-AG    21.8364 eV   56.78 nm  f=0.0000  <S**2>=0.000
       5 -> 17         0.42207
       6 -> 18         0.42207
       8 -> 20        -0.14117
       8 -> 21        -0.22638
       9 -> 20         0.22636
       9 -> 21        -0.14118

 Excited State  52:      Singlet-AG    22.0333 eV   56.27 nm  f=0.0000  <S**2>=0.000
       3 -> 10         0.67804

 Excited State  53:      Singlet-AG    22.2306 eV   55.77 nm  f=0.0000  <S**2>=0.000
       3 -> 10         0.10186
       4 -> 16         0.53641
       5 -> 18         0.31423
       6 -> 17        -0.31420

 Excited State  54:      Singlet-EU    22.5624 eV   54.95 nm  f=0.1450  <S**2>=0.000
       5 -> 19         0.66090

 Excited State  55:      Singlet-EU    22.5624 eV   54.95 nm  f=0.1450  <S**2>=0.000
       6 -> 19         0.66090

 Excited State  56:      Singlet-AG    22.5879 eV   54.89 nm  f=0.0000  <S**2>=0.000
       5 -> 18         0.48345
       6 -> 17         0.48347

 Excited State  57:      Singlet-AG    22.5879 eV   54.89 nm  f=0.0000  <S**2>=0.000
       5 -> 17        -0.48346
       6 -> 18         0.48346

 Excited State  58:      Singlet-AG    22.8655 eV   54.22 nm  f=0.0000  <S**2>=0.000
       5 -> 17         0.26617
       6 -> 18         0.26569
       8 -> 20         0.22160
       8 -> 21         0.35957
       9 -> 20        -0.35470
       9 -> 21         0.22385

 Excited State  59:      Singlet-AG    22.8664 eV   54.22 nm  f=0.0000  <S**2>=0.000
       8 -> 20        -0.20461
       8 -> 21         0.43826
       9 -> 20         0.44222
       9 -> 21         0.20214

 Excited State  60:      Singlet-AG    22.8664 eV   54.22 nm  f=0.0000  <S**2>=0.000
       8 -> 20         0.44026
       8 -> 21         0.20337
       9 -> 20         0.20339
       9 -> 21        -0.44024

 Excited State  61:      Singlet-AG    23.0095 eV   53.88 nm  f=0.0000  <S**2>=0.000
       4 -> 16         0.35881
       5 -> 18        -0.33387
       6 -> 17         0.33387
       8 -> 20        -0.21193
       8 -> 21         0.13219
       9 -> 20        -0.13217
       9 -> 21        -0.21197

 Excited State  62:      Singlet-EG    23.1738 eV   53.50 nm  f=0.0000  <S**2>=0.000
       7 -> 20         0.70025

 Excited State  63:      Singlet-EG    23.1738 eV   53.50 nm  f=0.0000  <S**2>=0.000
       7 -> 21         0.70024

 Excited State  64:      Singlet-AU    23.4793 eV   52.81 nm  f=0.0000  <S**2>=0.000
       3 -> 11         0.68478

 Excited State  65:      Singlet-EU    23.6216 eV   52.49 nm  f=0.0053  <S**2>=0.000
       3 -> 13         0.68484

 Excited State  66:      Singlet-EU    23.6216 eV   52.49 nm  f=0.0053  <S**2>=0.000
       3 -> 12         0.68484

 Excited State  67:      Singlet-AG    23.7828 eV   52.13 nm  f=0.0000  <S**2>=0.000
       3 -> 10        -0.10504
       4 -> 16         0.26662
       5 -> 18        -0.18121
       6 -> 17         0.18121
       7 -> 19         0.19334
       8 -> 20         0.31583
       8 -> 21        -0.19697
       9 -> 20         0.19697
       9 -> 21         0.31583

 Excited State  68:      Singlet-EG    24.4857 eV   50.64 nm  f=0.0000  <S**2>=0.000
       3 -> 15         0.68924

 Excited State  69:      Singlet-EG    24.4857 eV   50.64 nm  f=0.0000  <S**2>=0.000
       3 -> 14         0.68924

 Excited State  70:      Singlet-AU    25.0836 eV   49.43 nm  f=0.1648  <S**2>=0.000
       3 -> 16        -0.15369
       5 -> 20         0.43414
       6 -> 21         0.43413
       7 -> 22         0.25088

 Excited State  71:      Singlet-AU    25.1750 eV   49.25 nm  f=0.0000  <S**2>=0.000
       5 -> 21         0.48578
       6 -> 20        -0.48575

 Excited State  72:      Singlet-EU    25.2320 eV   49.14 nm  f=0.0515  <S**2>=0.000
       6 -> 19         0.12897
       8 -> 22        -0.31914
       9 -> 22         0.59092
       9 -> 26        -0.11815

 Excited State  73:      Singlet-EU    25.2320 eV   49.14 nm  f=0.0515  <S**2>=0.000
       5 -> 19         0.12896
       8 -> 22         0.59092
       8 -> 26        -0.11814
       9 -> 22         0.31915

 Excited State  74:      Singlet-AU    25.5288 eV   48.57 nm  f=0.2723  <S**2>=0.000
       5 -> 21         0.44552
       6 -> 20         0.44555
       8 -> 27         0.15795
       9 -> 28         0.15796

 Excited State  75:      Singlet-AU    25.5288 eV   48.57 nm  f=0.2723  <S**2>=0.000
       5 -> 20        -0.44553
       6 -> 21         0.44554
       8 -> 28        -0.15795
       9 -> 27         0.15795

 Excited State  76:      Singlet-AU    25.7947 eV   48.07 nm  f=0.0230  <S**2>=0.000
       3 -> 16         0.52271
       7 -> 22         0.44068

 Excited State  77:      Singlet-EG    26.0542 eV   47.59 nm  f=0.0000  <S**2>=0.000
       6 -> 26         0.13564
       8 -> 23        -0.32182
       9 -> 23         0.59588

 Excited State  78:      Singlet-EG    26.0543 eV   47.59 nm  f=0.0000  <S**2>=0.000
       5 -> 26         0.13563
       8 -> 23         0.59589
       9 -> 23         0.32183

 Excited State  79:      Singlet-AU    26.4981 eV   46.79 nm  f=0.0219  <S**2>=0.000
       3 -> 16         0.39147
       4 -> 19         0.21464
       5 -> 20         0.20178
       6 -> 21         0.20180
       7 -> 22        -0.28106
       8 -> 27         0.16629
       8 -> 28        -0.17206
       9 -> 27        -0.17207
       9 -> 28        -0.16629

 Excited State  80:      Singlet-AG    26.7163 eV   46.41 nm  f=0.0000  <S**2>=0.000
       8 -> 24        -0.28414
       8 -> 25        -0.39739
       9 -> 24         0.39743
       9 -> 25        -0.28413

 Excited State  81:      Singlet-AG    26.7727 eV   46.31 nm  f=0.0000  <S**2>=0.000
       7 -> 23         0.65899
       8 -> 24        -0.13288
       9 -> 25        -0.13284

 Excited State  82:      Singlet-AG    26.9881 eV   45.94 nm  f=0.0000  <S**2>=0.000
       4 -> 18         0.27877
       7 -> 24        -0.29470
       8 -> 24        -0.36687
       8 -> 25        -0.14217
       9 -> 24        -0.14216
       9 -> 25         0.36689

 Excited State  83:      Singlet-AG    26.9881 eV   45.94 nm  f=0.0000  <S**2>=0.000
       4 -> 17        -0.27876
       7 -> 25        -0.29470
       8 -> 24        -0.14215
       8 -> 25         0.36691
       9 -> 24         0.36686
       9 -> 25         0.14218

 Excited State  84:      Singlet-EU    27.0236 eV   45.88 nm  f=0.0736  <S**2>=0.000
       6 -> 23         0.21989
       8 -> 26        -0.28291
       8 -> 27        -0.17888
       9 -> 22         0.11211
       9 -> 26         0.52383
       9 -> 28        -0.17898

 Excited State  85:      Singlet-EU    27.0237 eV   45.88 nm  f=0.0736  <S**2>=0.000
       5 -> 23         0.21989
       8 -> 22         0.11209
       8 -> 26         0.52384
       8 -> 28         0.17892
       9 -> 26         0.28292
       9 -> 27        -0.17893

 Excited State  86:      Singlet-AU    27.1835 eV   45.61 nm  f=0.0000  <S**2>=0.000
       5 -> 25         0.12805
       6 -> 24        -0.12804
       8 -> 27         0.34177
       8 -> 28         0.33028
       9 -> 27         0.33029
       9 -> 28        -0.34173

 Excited State  87:      Singlet-AU    27.4291 eV   45.20 nm  f=0.2656  <S**2>=0.000
       3 -> 16        -0.18715
       4 -> 19         0.42951
       7 -> 22         0.28257
       7 -> 26         0.41974

 Excited State  88:      Singlet-EG    27.4381 eV   45.19 nm  f=0.0000  <S**2>=0.000
       4 -> 17        -0.29867
       7 -> 25         0.60086
       8 -> 25         0.10256
       9 -> 24         0.10256

 Excited State  89:      Singlet-EG    27.4381 eV   45.19 nm  f=0.0000  <S**2>=0.000
       4 -> 18         0.29872
       7 -> 24         0.60084
       8 -> 24        -0.10254
       9 -> 25         0.10254

 Excited State  90:      Singlet-EG    27.5302 eV   45.04 nm  f=0.0000  <S**2>=0.000
       4 -> 17        -0.30896
       6 -> 22         0.57139
       8 -> 25        -0.13023
       9 -> 24        -0.13024

 Excited State  91:      Singlet-EG    27.5302 eV   45.04 nm  f=0.0000  <S**2>=0.000
       4 -> 18         0.30891
       5 -> 22         0.57138
       8 -> 24         0.13024
       9 -> 25        -0.13026

 Excited State  92:      Singlet-EU    27.5827 eV   44.95 nm  f=0.1783  <S**2>=0.000
       5 -> 21         0.13403
       6 -> 20         0.13402
       7 -> 27         0.38074
       7 -> 28         0.10666
       8 -> 27        -0.34187
       9 -> 26        -0.17612
       9 -> 28        -0.34185

 Excited State  93:      Singlet-EU    27.5827 eV   44.95 nm  f=0.1782  <S**2>=0.000
       5 -> 20        -0.13403
       6 -> 21         0.13402
       7 -> 27        -0.10666
       7 -> 28         0.38073
       8 -> 26        -0.17609
       8 -> 28         0.34187
       9 -> 27        -0.34188

 Excited State  94:      Singlet-EU    27.8147 eV   44.58 nm  f=0.1522  <S**2>=0.000
       5 -> 21        -0.10681
       6 -> 20        -0.10681
       7 -> 27         0.55418
       7 -> 28         0.15525
       8 -> 27         0.23638
       9 -> 28         0.23638

 Excited State  95:      Singlet-EU    27.8147 eV   44.58 nm  f=0.1522  <S**2>=0.000
       5 -> 20         0.10682
       6 -> 21        -0.10681
       7 -> 27        -0.15525
       7 -> 28         0.55419
       8 -> 28        -0.23639
       9 -> 27         0.23636

 Excited State  96:      Singlet-AU    27.8568 eV   44.51 nm  f=0.0813  <S**2>=0.000
       4 -> 19         0.49872
       7 -> 26        -0.36685
       8 -> 27        -0.16224
       8 -> 28         0.16784
       9 -> 27         0.16788
       9 -> 28         0.16223

 Excited State  97:      Singlet-EG    27.9871 eV   44.30 nm  f=0.0000  <S**2>=0.000
       4 -> 17         0.45502
       6 -> 22         0.38523
       7 -> 25         0.11938
       8 -> 25         0.16453
       9 -> 24         0.16451
       9 -> 29         0.17016

 Excited State  98:      Singlet-EG    27.9871 eV   44.30 nm  f=0.0000  <S**2>=0.000
       4 -> 18         0.45502
       5 -> 22        -0.38523
       7 -> 24        -0.11937
       8 -> 24         0.16454
       8 -> 29        -0.17016
       9 -> 25        -0.16453

 Excited State  99:      Singlet-AG    28.3986 eV   43.66 nm  f=0.0000  <S**2>=0.000
       5 -> 28        -0.16180
       6 -> 27        -0.16179
       7 -> 23         0.18702
       7 -> 29         0.13123
       8 -> 24         0.34234
       8 -> 25        -0.24476
       9 -> 24         0.24476
       9 -> 25         0.34233

 Excited State 100:      Singlet-EU    29.0065 eV   42.74 nm  f=0.0426  <S**2>=0.000
       5 -> 23         0.65247
       8 -> 26        -0.21004
       9 -> 26        -0.11344

 Excited State 101:      Singlet-EU    29.0065 eV   42.74 nm  f=0.0426  <S**2>=0.000
       6 -> 23         0.65247
       8 -> 26         0.11344
       9 -> 26        -0.21004

 Excited State 102:      Singlet-AU    29.0592 eV   42.67 nm  f=0.0406  <S**2>=0.000
       5 -> 24         0.31834
       6 -> 25         0.31835
       7 -> 22         0.11314
       7 -> 26        -0.28855
       8 -> 27         0.20119
       8 -> 28        -0.20817
       9 -> 27        -0.20818
       9 -> 28        -0.20119

 Excited State 103:      Singlet-EG    29.4552 eV   42.09 nm  f=0.0000  <S**2>=0.000
       5 -> 26         0.26007
       5 -> 28        -0.17464
       6 -> 27         0.17463
       8 -> 24         0.12700

 The electronic state is 1-AG.
 Alpha  occ. eigenvalues --  -10.28671 -10.28666  -0.84207  -0.69968  -0.51791
 Alpha  occ. eigenvalues --   -0.51791  -0.45173  -0.42083  -0.42083
 Alpha virt. eigenvalues --    0.14737   0.19425   0.20683   0.20683   0.24064
 Alpha virt. eigenvalues --    0.24064   0.31670   0.50089   0.50089   0.51522
 Alpha virt. eigenvalues --    0.61096   0.61096   0.71014   0.73442   0.76921

 Mulliken charges:
               1
     1  C   -0.116734
     2  C   -0.116734
     3  H    0.038911
     4  H    0.038911
     5  H    0.038911
     6  H    0.038911
     7  H    0.038911
     8  H    0.038911
 Sum of Mulliken charges =   0.00000

 Dipole moment (field-independent basis, Debye):
    X=              0.0000    Y=             -0.0000    Z=              0.0000  Tot=              0.0000
 Quadrupole moment (field-independent basis, Debye-Ang):
   XX=            -14.7277   YY=            -14.7277   ZZ=            -15.3105
   XY=             -0.0000   XZ=             -0.0000   YZ=             -0.0000

 Normal termination of Gaussian 16 at Sat Aug 14 07:22:48 2021.
