 Gaussian 16, Revision C.01,
 Gaussian 16:  EM64L-G16RevC.01  3-Jul-2019

 ----------------------------------------------------------------------
 #P TD(Nstates=10000) wB97XD/def2SVP SCF(maxcycles=100) Int(Grid=ultraf
 ine)
 ----------------------------------------------------------------------

 ---------------------
 xGDB7_00001_tier4.com
 ---------------------
 Symbolic Z-matrix:
 Charge =  0 Multiplicity = 1

                         Standard orientation:
 ---------------------------------------------------------------------
 Center     Atomic      Atomic             Coordinates (Angstroms)
 Number     Number       Type             X           Y           Z
 ---------------------------------------------------------------------
      1          9           0        0.000000    0.000000    0.688459
      2          9           0        0.000000    0.000000   -0.688459
 ---------------------------------------------------------------------

 SCF Done:  E(RwB97XD) =  -199.287969467     A.U. after    9 cycles

 Excitation energies and oscillator strengths:

 Excited state symmetry could not be determined.
 Excited State   1:      Singlet-?Sym    4.9775 eV  249.09 nm  f=0.0001  <S**2>=0.000
       8 -> 10         0.16452
       9 -> 10         0.68974
 This state for optimization and/or second-order correction.
 Total Energy, E(TD-HF/TD-DFT) =  -199.105048859
 Copying the excited state density for this state as the 1-particle RhoCI density.

 Excited state symmetry could not be determined.
 Excited State   2:      Singlet-?Sym    4.9775 eV  249.09 nm  f=0.0001  <S**2>=0.000
       8 -> 10         0.68974
       9 -> 10        -0.16452

 Excited state symmetry could not be determined.
 Excited State   3:      Singlet-?Sym    8.8721 eV  139.75 nm  f=0.0000  <S**2>=0.000
       6 -> 10         0.70667

 Excited state symmetry could not be determined.
 Excited State   4:      Singlet-?Sym    8.8721 eV  139.75 nm  f=0.0000  <S**2>=0.000
       7 -> 10         0.70667

 Excited State   5:      Singlet-SGU   15.7447 eV   78.75 nm  f=0.8442  <S**2>=0.000
       5 -> 10         0.70641
       5 <- 10        -0.12443

 Excited State   6:      Singlet-SGG   25.6480 eV   48.34 nm  f=0.0000  <S**2>=0.000
       4 -> 10         0.70530

 Excited State   7:      Singlet-SGU   32.7561 eV   37.85 nm  f=0.0041  <S**2>=0.000
       3 -> 10         0.68503
       8 -> 12        -0.11558
       9 -> 13        -0.11558

 Excited state symmetry could not be determined.
 Excited State   8:      Singlet-?Sym   36.1406 eV   34.31 nm  f=0.0000  <S**2>=0.000
       6 -> 14        -0.12326
       8 -> 11         0.69594

 Excited state symmetry could not be determined.
 Excited State   9:      Singlet-?Sym   36.1406 eV   34.31 nm  f=0.0000  <S**2>=0.000
       7 -> 14        -0.12326
       9 -> 11         0.69594

 Excited state symmetry could not be determined.
 Excited State  10:      Singlet-?Sym   36.3135 eV   34.14 nm  f=0.0000  <S**2>=0.000
       8 -> 13        -0.49625
       9 -> 12         0.49625

 Excited state symmetry could not be determined.
 Excited State  11:      Singlet-?Sym   36.4174 eV   34.05 nm  f=0.0000  <S**2>=0.000
       8 -> 12         0.49638
       9 -> 13        -0.49638

 Excited state symmetry could not be determined.
 Excited State  12:      Singlet-?Sym   36.4174 eV   34.05 nm  f=0.0000  <S**2>=0.000
       8 -> 13         0.49638
       9 -> 12         0.49638

 Excited state symmetry could not be determined.
 Excited State  13:      Singlet-?Sym   36.8415 eV   33.65 nm  f=0.1200  <S**2>=0.000
       6 -> 11        -0.15296
       8 -> 14         0.65970
       9 -> 14         0.18923

 Excited state symmetry could not be determined.
 Excited State  14:      Singlet-?Sym   36.8415 eV   33.65 nm  f=0.1200  <S**2>=0.000
       7 -> 11        -0.15296
       8 -> 14        -0.18923
       9 -> 14         0.65970

 Excited state symmetry could not be determined.
 Excited State  15:      Singlet-?Sym   39.7090 eV   31.22 nm  f=0.0000  <S**2>=0.000
       6 -> 13        -0.42903
       7 -> 12         0.42903
       8 -> 15        -0.25680
       9 -> 16         0.25680

 Excited state symmetry could not be determined.
 Excited State  16:      Singlet-?Sym   39.8922 eV   31.08 nm  f=0.0000  <S**2>=0.000
       6 -> 12         0.43175
       7 -> 13        -0.43175
       8 -> 16         0.25217
       9 -> 15        -0.25217

 Excited state symmetry could not be determined.
 Excited State  17:      Singlet-?Sym   39.8922 eV   31.08 nm  f=0.0000  <S**2>=0.000
       6 -> 13         0.43175
       7 -> 12         0.43175
       8 -> 15         0.25216
       9 -> 16         0.25216

 Excited State  18:      Singlet-SGU   40.1273 eV   30.90 nm  f=0.3961  <S**2>=0.000
       3 -> 10        -0.12171
       5 -> 14         0.40714
       8 -> 12        -0.38411
       9 -> 13        -0.38411

 Excited state symmetry could not be determined.
 Excited State  19:      Singlet-?Sym   40.5421 eV   30.58 nm  f=0.1950  <S**2>=0.000
       7 -> 11         0.68761
       9 -> 14         0.15813

 Excited state symmetry could not be determined.
 Excited State  20:      Singlet-?Sym   40.5421 eV   30.58 nm  f=0.1950  <S**2>=0.000
       6 -> 11         0.68761
       8 -> 14         0.15813

 Excited state symmetry could not be determined.
 Excited State  21:      Singlet-?Sym   40.9562 eV   30.27 nm  f=0.0000  <S**2>=0.000
       6 -> 14        -0.21172
       7 -> 14         0.63902
       9 -> 11         0.11249
       9 -> 17         0.17027

 Excited state symmetry could not be determined.
 Excited State  22:      Singlet-?Sym   40.9562 eV   30.27 nm  f=0.0000  <S**2>=0.000
       6 -> 14         0.63902
       7 -> 14         0.21172
       8 -> 11         0.11249
       8 -> 17         0.17027

 Excited State  23:      Singlet-SGG   41.5714 eV   29.82 nm  f=0.0000  <S**2>=0.000
       5 -> 11         0.62661
       6 -> 12         0.22898
       7 -> 13         0.22898

 Excited state symmetry could not be determined.
 Excited State  24:      Singlet-?Sym   41.9945 eV   29.52 nm  f=0.0067  <S**2>=0.000
       5 -> 12         0.60132
       5 -> 13         0.36994

 Excited state symmetry could not be determined.
 Excited State  25:      Singlet-?Sym   41.9945 eV   29.52 nm  f=0.0067  <S**2>=0.000
       5 -> 12        -0.36994
       5 -> 13         0.60132

 Excited state symmetry could not be determined.
 Excited State  26:      Singlet-?Sym   42.2415 eV   29.35 nm  f=0.0000  <S**2>=0.000
       6 -> 13        -0.25216
       7 -> 12        -0.25216
       8 -> 15         0.43175
       9 -> 16         0.43175

 Excited state symmetry could not be determined.
 Excited State  27:      Singlet-?Sym   42.2415 eV   29.35 nm  f=0.0000  <S**2>=0.000
       6 -> 12         0.25217
       7 -> 13        -0.25217
       8 -> 16        -0.43174
       9 -> 15         0.43174

 Excited state symmetry could not be determined.
 Excited State  28:      Singlet-?Sym   42.2980 eV   29.31 nm  f=0.0000  <S**2>=0.000
       6 -> 13        -0.25678
       7 -> 12         0.25678
       8 -> 15         0.42901
       9 -> 16        -0.42901

 Excited state symmetry could not be determined.
 Excited State  29:      Singlet-?Sym   42.3156 eV   29.30 nm  f=0.0000  <S**2>=0.000
       5 -> 11         0.25292
       6 -> 12        -0.31713
       7 -> 13        -0.31713
       8 -> 16         0.34171
       9 -> 15         0.34171

 Excited State  30:      Singlet-SGU   43.8907 eV   28.25 nm  f=0.0014  <S**2>=0.000
       5 -> 14         0.49661
       6 -> 16        -0.30078
       7 -> 15        -0.30078
       8 -> 12         0.18540
       9 -> 13         0.18540

 Excited state symmetry could not be determined.
 Excited State  31:      Singlet-?Sym   44.7038 eV   27.73 nm  f=0.0000  <S**2>=0.000
       7 -> 14        -0.17079
       8 -> 17        -0.17555
       9 -> 17         0.65892

 Excited state symmetry could not be determined.
 Excited State  32:      Singlet-?Sym   44.7038 eV   27.73 nm  f=0.0000  <S**2>=0.000
       6 -> 14        -0.17079
       8 -> 17         0.65892
       9 -> 17         0.17555

 Excited state symmetry could not be determined.
 Excited State  33:      Singlet-?Sym   45.6526 eV   27.16 nm  f=0.0000  <S**2>=0.000
       6 -> 16        -0.49637
       7 -> 15         0.49637

 Excited state symmetry could not be determined.
 Excited State  34:      Singlet-?Sym   45.6526 eV   27.16 nm  f=0.0000  <S**2>=0.000
       6 -> 15         0.49637
       7 -> 16         0.49637

 Excited state symmetry could not be determined.
 Excited State  35:      Singlet-?Sym   45.6996 eV   27.13 nm  f=0.0000  <S**2>=0.000
       6 -> 15         0.49622
       7 -> 16        -0.49622

 Excited State  36:      Singlet-SGG   46.5698 eV   26.62 nm  f=0.0000  <S**2>=0.000
       4 -> 14        -0.13023
       5 -> 11         0.16627
       5 -> 17         0.43296
       6 -> 12        -0.22863
       7 -> 13        -0.22863
       8 -> 16        -0.28058
       9 -> 15        -0.28058

 Excited state symmetry could not be determined.
 Excited State  37:      Singlet-?Sym   47.0456 eV   26.35 nm  f=0.0000  <S**2>=0.000
       5 -> 15         0.30833
       5 -> 16         0.63393

 Excited state symmetry could not be determined.
 Excited State  38:      Singlet-?Sym   47.0456 eV   26.35 nm  f=0.0000  <S**2>=0.000
       5 -> 15         0.63393
       5 -> 16        -0.30833

 Excited state symmetry could not be determined.
 Excited State  39:      Singlet-?Sym   48.7033 eV   25.46 nm  f=0.1566  <S**2>=0.000
       6 -> 17         0.12429
       7 -> 17         0.68144
       9 -> 18        -0.12475

 Excited state symmetry could not be determined.
 Excited State  40:      Singlet-?Sym   48.7033 eV   25.46 nm  f=0.1566  <S**2>=0.000
       6 -> 17         0.68144
       7 -> 17        -0.12429
       8 -> 18        -0.12475

 Excited state symmetry could not be determined.
 Excited State  41:      Singlet-?Sym   50.7019 eV   24.45 nm  f=0.2152  <S**2>=0.000
       6 -> 17         0.12757
       8 -> 18         0.69493

 Excited state symmetry could not be determined.
 Excited State  42:      Singlet-?Sym   50.7019 eV   24.45 nm  f=0.2152  <S**2>=0.000
       7 -> 17         0.12757
       9 -> 18         0.69493

 Excited State  43:      Singlet-SGU   50.8216 eV   24.40 nm  f=0.0301  <S**2>=0.000
       4 -> 11         0.41234
       5 -> 14        -0.24250
       6 -> 16        -0.32406
       7 -> 15        -0.32406
       8 -> 12        -0.14530
       9 -> 13        -0.14530

 Excited State  44:      Singlet-SGG   53.4484 eV   23.20 nm  f=0.0000  <S**2>=0.000
       3 -> 11        -0.16557
       4 -> 14         0.34128
       5 -> 17         0.50934
       6 -> 12         0.13197
       7 -> 13         0.13197
       8 -> 16         0.15465
       9 -> 15         0.15465

 Excited state symmetry could not be determined.
 Excited State  45:      Singlet-?Sym   54.3824 eV   22.80 nm  f=0.0000  <S**2>=0.000
       7 -> 18         0.70469

 Excited state symmetry could not be determined.
 Excited State  46:      Singlet-?Sym   54.3824 eV   22.80 nm  f=0.0000  <S**2>=0.000
       6 -> 18         0.70469

 Excited state symmetry could not be determined.
 Excited State  47:      Singlet-?Sym   55.6099 eV   22.30 nm  f=0.0000  <S**2>=0.000
       4 -> 12         0.69707

 Excited state symmetry could not be determined.
 Excited State  48:      Singlet-?Sym   55.6099 eV   22.30 nm  f=0.0000  <S**2>=0.000
       4 -> 13         0.69707

 Excited State  49:      Singlet-SGU   55.9630 eV   22.15 nm  f=0.0706  <S**2>=0.000
       4 -> 11         0.16438
       5 -> 18         0.68227

 Excited State  50:      Singlet-SGG   57.9389 eV   21.40 nm  f=0.0000  <S**2>=0.000
       3 -> 11         0.21518
       4 -> 14         0.59173
       4 -> 18        -0.10218
       5 -> 17        -0.16705
       6 -> 12        -0.11765
       7 -> 13        -0.11765
       8 -> 16        -0.11981
       9 -> 15        -0.11981

 Excited State  51:      Singlet-SGU   60.1107 eV   20.63 nm  f=0.1309  <S**2>=0.000
       3 -> 14         0.10850
       3 -> 18         0.10187
       4 -> 11         0.53369
       4 -> 17        -0.14746
       5 -> 10         0.10237
       5 -> 14         0.14316
       5 -> 18        -0.14430
       6 -> 16         0.19564
       7 -> 15         0.19564
       8 -> 12         0.15543
       9 -> 13         0.15543

 Excited state symmetry could not be determined.
 Excited State  52:      Singlet-?Sym   60.5203 eV   20.49 nm  f=0.3338  <S**2>=0.000
       3 -> 13         0.15211
       4 -> 15         0.68172
       4 -> 16        -0.10189

 Excited state symmetry could not be determined.
 Excited State  53:      Singlet-?Sym   60.5203 eV   20.49 nm  f=0.3338  <S**2>=0.000
       3 -> 12         0.15211
       4 -> 15         0.10189
       4 -> 16         0.68172

 Excited State  54:      Singlet-SGU   62.8660 eV   19.72 nm  f=0.2442  <S**2>=0.000
       3 -> 14         0.51421
       4 -> 17         0.48028

 Excited state symmetry could not be determined.
 Excited State  55:      Singlet-?Sym   63.0357 eV   19.67 nm  f=0.1148  <S**2>=0.000
       3 -> 12         0.68203
       3 -> 13         0.10147
       4 -> 16        -0.15247

 Excited state symmetry could not be determined.
 Excited State  56:      Singlet-?Sym   63.0357 eV   19.67 nm  f=0.1148  <S**2>=0.000
       3 -> 12        -0.10147
       3 -> 13         0.68203
       4 -> 15        -0.15247

 Excited State  57:      Singlet-SGG   64.3320 eV   19.27 nm  f=0.0000  <S**2>=0.000
       3 -> 11         0.62921
       3 -> 17        -0.11698
       4 -> 18         0.20036
       5 -> 17         0.10848

 Excited State  58:      Singlet-SGU   64.5876 eV   19.20 nm  f=0.0082  <S**2>=0.000
       3 -> 14        -0.46593
       4 -> 17         0.49244

 Excited state symmetry could not be determined.
 Excited State  59:      Singlet-?Sym   67.9676 eV   18.24 nm  f=0.0000  <S**2>=0.000
       3 -> 15         0.69197
       3 -> 16         0.13818

 Excited state symmetry could not be determined.
 Excited State  60:      Singlet-?Sym   67.9676 eV   18.24 nm  f=0.0000  <S**2>=0.000
       3 -> 15        -0.13818
       3 -> 16         0.69197

 Excited State  61:      Singlet-SGG   70.2296 eV   17.65 nm  f=0.0000  <S**2>=0.000
       3 -> 17         0.38082
       4 -> 18         0.58215

 Excited State  62:      Singlet-SGG   72.6353 eV   17.07 nm  f=0.0000  <S**2>=0.000
       3 -> 11         0.13389
       3 -> 17         0.57419
       4 -> 14        -0.10066
       4 -> 18        -0.32331

 Excited State  63:      Singlet-SGU   77.8970 eV   15.92 nm  f=0.0017  <S**2>=0.000
       3 -> 18         0.69584

 Excited state symmetry could not be determined.
 Excited State  64:      Singlet-?Sym   80.7124 eV   15.36 nm  f=0.0000  <S**2>=0.000
       8 -> 19         0.59879
       9 -> 19        -0.35791

 Excited state symmetry could not be determined.
 Excited State  65:      Singlet-?Sym   80.7124 eV   15.36 nm  f=0.0000  <S**2>=0.000
       8 -> 19         0.35791
       9 -> 19         0.59879

 Excited state symmetry could not be determined.
 Excited State  66:      Singlet-?Sym   80.9162 eV   15.32 nm  f=0.0000  <S**2>=0.000
       8 -> 20         0.49915
       9 -> 21        -0.49915

 Excited state symmetry could not be determined.
 Excited State  67:      Singlet-?Sym   80.9162 eV   15.32 nm  f=0.0000  <S**2>=0.000
       8 -> 21         0.49915
       9 -> 20         0.49915

 Excited state symmetry could not be determined.
 Excited State  68:      Singlet-?Sym   80.9504 eV   15.32 nm  f=0.0000  <S**2>=0.000
       8 -> 21        -0.49921
       9 -> 20         0.49921

 Excited state symmetry could not be determined.
 Excited State  69:      Singlet-?Sym   84.4185 eV   14.69 nm  f=0.0033  <S**2>=0.000
       5 -> 21         0.11020
       6 -> 19        -0.27649
       7 -> 19         0.63375

 Excited state symmetry could not be determined.
 Excited State  70:      Singlet-?Sym   84.4185 eV   14.69 nm  f=0.0033  <S**2>=0.000
       5 -> 20         0.11020
       6 -> 19         0.63375
       7 -> 19         0.27649

 Excited state symmetry could not be determined.
 Excited State  71:      Singlet-?Sym   84.5640 eV   14.66 nm  f=2.0720  <S**2>=0.000
       8 -> 20         0.49624
       9 -> 21         0.49624

 Excited state symmetry could not be determined.
 Excited State  72:      Singlet-?Sym   84.8414 eV   14.61 nm  f=0.0000  <S**2>=0.000
       6 -> 21        -0.49825
       7 -> 20         0.49825

 Excited state symmetry could not be determined.
 Excited State  73:      Singlet-?Sym   84.8599 eV   14.61 nm  f=0.0000  <S**2>=0.000
       6 -> 20         0.49834
       7 -> 21        -0.49834

 Excited state symmetry could not be determined.
 Excited State  74:      Singlet-?Sym   84.8599 eV   14.61 nm  f=0.0000  <S**2>=0.000
       6 -> 21         0.49834
       7 -> 20         0.49834

 Excited State  75:      Singlet-SGG   85.5450 eV   14.49 nm  f=0.0000  <S**2>=0.000
       5 -> 19         0.55649
       6 -> 20        -0.30623
       7 -> 21        -0.30623

 Excited state symmetry could not be determined.
 Excited State  76:      Singlet-?Sym   87.1464 eV   14.23 nm  f=0.0554  <S**2>=0.000
       5 -> 20         0.65297
       6 -> 23         0.11310
       7 -> 22        -0.11310
       8 -> 25         0.13925
       9 -> 24        -0.13926

 Excited state symmetry could not be determined.
 Excited State  77:      Singlet-?Sym   87.1464 eV   14.23 nm  f=0.0554  <S**2>=0.000
       5 -> 21         0.65297
       6 -> 22        -0.11310
       7 -> 23        -0.11310
       8 -> 24        -0.13926
       9 -> 25        -0.13925

 Excited state symmetry could not be determined.
 Excited State  78:      Singlet-?Sym   88.4202 eV   14.02 nm  f=0.0000  <S**2>=0.000
       8 -> 22        -0.11420
       8 -> 23         0.47759
       9 -> 22         0.47760
       9 -> 23         0.11420

 Excited state symmetry could not be determined.
 Excited State  79:      Singlet-?Sym   88.4202 eV   14.02 nm  f=0.0000  <S**2>=0.000
       8 -> 22         0.47760
       8 -> 23         0.11420
       9 -> 22         0.11420
       9 -> 23        -0.47759

 Excited state symmetry could not be determined.
 Excited State  80:      Singlet-?Sym   90.6153 eV   13.68 nm  f=0.0000  <S**2>=0.000
       6 -> 22         0.10574
       6 -> 23         0.25249
       7 -> 22         0.25249
       7 -> 23        -0.10574
       8 -> 24         0.16162
       8 -> 25         0.38594
       9 -> 24         0.38594
       9 -> 25        -0.16162

 Excited state symmetry could not be determined.
 Excited State  81:      Singlet-?Sym   90.6153 eV   13.68 nm  f=0.0000  <S**2>=0.000
       6 -> 22         0.25249
       6 -> 23        -0.10574
       7 -> 22        -0.10574
       7 -> 23        -0.25249
       8 -> 24         0.38594
       8 -> 25        -0.16162
       9 -> 24        -0.16162
       9 -> 25        -0.38594

 Excited State  82:      Singlet-SGG   91.1591 eV   13.60 nm  f=0.0000  <S**2>=0.000
       5 -> 19         0.40601
       6 -> 20         0.37652
       7 -> 21         0.37652
       8 -> 26        -0.15639
       9 -> 27        -0.15639

 Excited state symmetry could not be determined.
 Excited State  83:      Singlet-?Sym   91.5376 eV   13.54 nm  f=0.0000  <S**2>=0.000
       6 -> 24        -0.12060
       7 -> 25        -0.12059
       8 -> 22         0.42885
       8 -> 23         0.20238
       9 -> 22        -0.20237
       9 -> 23         0.42887

 Excited state symmetry could not be determined.
 Excited State  84:      Singlet-?Sym   91.5376 eV   13.54 nm  f=0.0000  <S**2>=0.000
       6 -> 25        -0.12059
       7 -> 24         0.12060
       8 -> 22        -0.20237
       8 -> 23         0.42887
       9 -> 22        -0.42885
       9 -> 23        -0.20238

 Excited state symmetry could not be determined.
 Excited State  85:      Singlet-?Sym   93.3487 eV   13.28 nm  f=0.0109  <S**2>=0.000
       6 -> 22        -0.24567
       6 -> 23         0.23354
       7 -> 22        -0.23375
       7 -> 23        -0.24546
       8 -> 24         0.26554
       8 -> 25        -0.25252
       9 -> 24         0.25265
       9 -> 25         0.26540

 Excited state symmetry could not be determined.
 Excited State  86:      Singlet-?Sym   93.3487 eV   13.28 nm  f=0.0109  <S**2>=0.000
       6 -> 22         0.23375
       6 -> 23         0.24546
       7 -> 22        -0.24567
       7 -> 23         0.23354
       8 -> 24        -0.25265
       8 -> 25        -0.26540
       9 -> 24         0.26554
       9 -> 25        -0.25252

 Excited state symmetry could not be determined.
 Excited State  87:      Singlet-?Sym   93.4696 eV   13.26 nm  f=0.0000  <S**2>=0.000
       6 -> 22         0.25969
       6 -> 23         0.32811
       7 -> 22         0.32792
       7 -> 23        -0.25983
       8 -> 24        -0.16986
       8 -> 25        -0.21470
       9 -> 24        -0.21449
       9 -> 25         0.17002

 Excited state symmetry could not be determined.
 Excited State  88:      Singlet-?Sym   93.4696 eV   13.26 nm  f=0.0000  <S**2>=0.000
       6 -> 22        -0.32792
       6 -> 23         0.25983
       7 -> 22         0.25969
       7 -> 23         0.32811
       8 -> 24         0.21449
       8 -> 25        -0.17002
       9 -> 24        -0.16986
       9 -> 25        -0.21470

 Excited state symmetry could not be determined.
 Excited State  89:      Singlet-?Sym   94.1367 eV   13.17 nm  f=0.0000  <S**2>=0.000
       5 -> 22         0.70652

 Excited state symmetry could not be determined.
 Excited State  90:      Singlet-?Sym   94.1367 eV   13.17 nm  f=0.0000  <S**2>=0.000
       5 -> 23         0.70652

 Excited state symmetry could not be determined.
 Excited State  91:      Singlet-?Sym   95.6240 eV   12.97 nm  f=0.0000  <S**2>=0.000
       6 -> 24         0.39545
       6 -> 25        -0.29114
       7 -> 24        -0.29115
       7 -> 25        -0.39544

 Excited state symmetry could not be determined.
 Excited State  92:      Singlet-?Sym   95.6240 eV   12.97 nm  f=0.0000  <S**2>=0.000
       6 -> 24         0.29115
       6 -> 25         0.39544
       7 -> 24         0.39545
       7 -> 25        -0.29114

 Excited state symmetry could not be determined.
 Excited State  93:      Singlet-?Sym   96.8978 eV   12.80 nm  f=0.0000  <S**2>=0.000
       5 -> 24         0.70616

 Excited state symmetry could not be determined.
 Excited State  94:      Singlet-?Sym   96.8979 eV   12.80 nm  f=0.0000  <S**2>=0.000
       5 -> 25         0.70616

 Excited state symmetry could not be determined.
 Excited State  95:      Singlet-?Sym   98.3437 eV   12.61 nm  f=0.0000  <S**2>=0.000
       4 -> 21         0.23479
       5 -> 27        -0.19299
       6 -> 24         0.42955
       7 -> 25         0.42956

 Excited state symmetry could not be determined.
 Excited State  96:      Singlet-?Sym   98.3437 eV   12.61 nm  f=0.0000  <S**2>=0.000
       4 -> 20        -0.23479
       5 -> 26         0.19299
       6 -> 25         0.42956
       7 -> 24        -0.42955

 Excited State  97:      Singlet-SGU   99.9158 eV   12.41 nm  f=0.0067  <S**2>=0.000
       4 -> 19         0.69991

 Excited state symmetry could not be determined.
 Excited State  98:      Singlet-?Sym  100.5656 eV   12.33 nm  f=0.0000  <S**2>=0.000
       8 -> 26         0.49834
       9 -> 27        -0.49834

 Excited state symmetry could not be determined.
 Excited State  99:      Singlet-?Sym  100.5656 eV   12.33 nm  f=0.0000  <S**2>=0.000

 The electronic state is 1-SGG.
 Alpha  occ. eigenvalues --  -24.91661 -24.91647  -1.44931  -1.17199  -0.69069
 Alpha  occ. eigenvalues --   -0.63472  -0.63472  -0.49170  -0.49170
 Alpha virt. eigenvalues --   -0.03575   1.08734   1.12090   1.12090   1.12101
 Alpha virt. eigenvalues --    1.30084   1.30084   1.42344   1.62082   2.75002
 Alpha virt. eigenvalues --    2.77300   2.77300   3.05102   3.05102   3.15313

 Mulliken charges:
               1
     1  F   -0.000000
     2  F   -0.000000
 Sum of Mulliken charges =  -0.00000

 Dipole moment (field-independent basis, Debye):
    X=             -0.0000    Y=              0.0000    Z=              0.0000  Tot=              0.0000
 Quadrupole moment (field-independent basis, Debye-Ang):
   XX=             -9.3148   YY=             -9.3148   ZZ=             -8.7373
   XY=              0.0000   XZ=              0.0000   YZ=              0.0000

 Normal termination of Gaussian 16 at Sat Aug 14 23:27:21 2021.
