 Gaussian 16, Revision C.01,
 Gaussian 16:  EM64L-G16RevC.01  3-Jul-2019

 ----------------------------------------------------------------------
 #P TD(Nstates=10000) pbepbe/Gen SCF(maxcycles=100) Int(Grid=ultrafine)
 ----------------------------------------------------------------------

 ---------------------
 xGDB7_00001_tier4.com
 ---------------------
 Symbolic Z-matrix:
 Charge =  0 Multiplicity = 1

                         Standard orientation:
 ---------------------------------------------------------------------
 Center     Atomic      Atomic             Coordinates (Angstroms)
 Number     Number       Type             X           Y           Z
 ---------------------------------------------------------------------
      1          6           0        0.000000    0.000000   -1.173653
      2          6           0        0.000000    0.000000    0.280989
      3          7           0        0.000000    0.000000    1.427442
      4          1           0        0.000000    1.024088   -1.545371
      5          1           0       -0.886886   -0.512044   -1.545371
      6          1           0        0.886886   -0.512044   -1.545371
 ---------------------------------------------------------------------

 SCF Done:  E(RPBE-PBE) =  -132.490397662     A.U. after   13 cycles

 Excitation energies and oscillator strengths:

 Excited State   1:      Singlet-E      7.9372 eV  156.21 nm  f=0.0001  <S**2>=0.000
      11 -> 12         0.70637
 This state for optimization and/or second-order correction.
 Total Energy, E(TD-HF/TD-DFT) =  -132.198711392
 Copying the excited state density for this state as the 1-particle RhoCI density.

 Excited State   2:      Singlet-E      7.9372 eV  156.21 nm  f=0.0001  <S**2>=0.000
      10 -> 12         0.70637

 Excited state symmetry could not be determined.
 Excited State   3:      Singlet-?Sym    7.9780 eV  155.41 nm  f=0.0000  <S**2>=0.000
      10 -> 14        -0.50000
      11 -> 13         0.50000

 Excited State   4:      Singlet-A1     8.1660 eV  151.83 nm  f=0.0104  <S**2>=0.000
       9 -> 12         0.70671

 Excited state symmetry could not be determined.
 Excited State   5:      Singlet-?Sym    8.2569 eV  150.16 nm  f=0.0028  <S**2>=0.000
      10 -> 13         0.49883
      11 -> 14        -0.49883

 Excited state symmetry could not be determined.
 Excited State   6:      Singlet-?Sym    8.2569 eV  150.16 nm  f=0.0028  <S**2>=0.000
      10 -> 14         0.49883
      11 -> 13         0.49883

 Excited State   7:      Singlet-E      8.9155 eV  139.07 nm  f=0.0124  <S**2>=0.000
       9 -> 13         0.69551
       9 -> 17        -0.10129

 Excited State   8:      Singlet-E      8.9155 eV  139.07 nm  f=0.0124  <S**2>=0.000
       9 -> 14         0.69551
       9 -> 16        -0.10129

 Excited State   9:      Singlet-E      9.7962 eV  126.56 nm  f=0.0442  <S**2>=0.000
      10 -> 15         0.70638

 Excited State  10:      Singlet-E      9.7962 eV  126.56 nm  f=0.0442  <S**2>=0.000
      11 -> 15         0.70638

 Excited State  11:      Singlet-A1     9.9177 eV  125.01 nm  f=0.2633  <S**2>=0.000
       9 -> 15         0.38166
      10 -> 13         0.28367
      10 -> 17        -0.30534
      11 -> 14         0.28367
      11 -> 16        -0.30535

 Excited State  12:      Singlet-A1    10.1438 eV  122.23 nm  f=0.0551  <S**2>=0.000
       9 -> 15         0.58682
      10 -> 13        -0.13105
      10 -> 17         0.24113
      11 -> 14        -0.13105
      11 -> 16         0.24113

 Excited state symmetry could not be determined.
 Excited State  13:      Singlet-?Sym   10.4071 eV  119.13 nm  f=0.0000  <S**2>=0.000
      10 -> 16         0.49996
      11 -> 17        -0.49996

 Excited state symmetry could not be determined.
 Excited State  14:      Singlet-?Sym   10.4446 eV  118.71 nm  f=0.0044  <S**2>=0.000
      10 -> 17        -0.49742
      11 -> 16         0.49742

 Excited state symmetry could not be determined.
 Excited State  15:      Singlet-?Sym   10.4446 eV  118.71 nm  f=0.0044  <S**2>=0.000
      10 -> 16         0.49742
      11 -> 17         0.49743

 Excited State  16:      Singlet-E     10.7816 eV  115.00 nm  f=0.0053  <S**2>=0.000
       9 -> 16         0.69439

 Excited State  17:      Singlet-E     10.7816 eV  115.00 nm  f=0.0053  <S**2>=0.000
       9 -> 17         0.69439

 Excited state symmetry could not be determined.
 Excited State  18:      Singlet-?Sym   11.1730 eV  110.97 nm  f=0.0000  <S**2>=0.000
      10 -> 19         0.49990
      11 -> 20        -0.49987

 Excited state symmetry could not be determined.
 Excited State  19:      Singlet-?Sym   11.2010 eV  110.69 nm  f=0.0002  <S**2>=0.000
      10 -> 20         0.48477
      11 -> 19         0.48482

 Excited state symmetry could not be determined.
 Excited State  20:      Singlet-?Sym   11.2172 eV  110.53 nm  f=0.0006  <S**2>=0.000
       7 -> 14         0.14210
       8 -> 13        -0.14210
      10 -> 20         0.41798
      11 -> 18         0.32372
      11 -> 19        -0.41793

 Excited state symmetry could not be determined.
 Excited State  21:      Singlet-?Sym   11.2172 eV  110.53 nm  f=0.0006  <S**2>=0.000
       7 -> 13        -0.14210
       8 -> 14        -0.14210
      10 -> 18         0.32373
      10 -> 19         0.41794
      11 -> 20         0.41797

 Excited State  22:      Singlet-E     11.2629 eV  110.08 nm  f=0.0001  <S**2>=0.000
       8 -> 12        -0.30711
      10 -> 18         0.55263
      10 -> 19        -0.21068
      11 -> 20        -0.21069

 Excited State  23:      Singlet-E     11.2629 eV  110.08 nm  f=0.0001  <S**2>=0.000
       7 -> 12        -0.30711
      10 -> 20        -0.21069
      11 -> 18         0.55263
      11 -> 19         0.21067

 Excited state symmetry could not be determined.
 Excited State  24:      Singlet-?Sym   11.3319 eV  109.41 nm  f=0.0000  <S**2>=0.000
       7 -> 13         0.49996
       8 -> 14        -0.49996

 Excited State  25:      Singlet-A1    11.3981 eV  108.78 nm  f=0.0212  <S**2>=0.000
       7 -> 14         0.14728
       8 -> 13         0.14728
       9 -> 18         0.60894
      10 -> 13         0.12414
      10 -> 17         0.12283
      11 -> 14         0.12414
      11 -> 16         0.12283

 Excited State  26:      Singlet-E     11.4366 eV  108.41 nm  f=0.1058  <S**2>=0.000
       8 -> 12         0.56404
       9 -> 20        -0.29503
      10 -> 18         0.23961

 Excited State  27:      Singlet-E     11.4366 eV  108.41 nm  f=0.1058  <S**2>=0.000
       7 -> 12         0.56404
       9 -> 19        -0.29504
      11 -> 18         0.23961

 Excited State  28:      Singlet-E     11.4666 eV  108.13 nm  f=0.0327  <S**2>=0.000
       8 -> 12         0.26346
       9 -> 20         0.63768
      10 -> 18         0.11525

 Excited State  29:      Singlet-E     11.4666 eV  108.13 nm  f=0.0327  <S**2>=0.000
       7 -> 12         0.26347
       9 -> 19         0.63767
      11 -> 18         0.11525

 Excited state symmetry could not be determined.
 Excited State  30:      Singlet-?Sym   11.5875 eV  107.00 nm  f=0.0390  <S**2>=0.000
       7 -> 13         0.46169
       8 -> 12         0.11506
       8 -> 14         0.46169
      10 -> 19         0.12744
      11 -> 20         0.12743

 Excited state symmetry could not be determined.
 Excited State  31:      Singlet-?Sym   11.5875 eV  107.00 nm  f=0.0390  <S**2>=0.000
       7 -> 12         0.11506
       7 -> 14        -0.46169
       8 -> 13         0.46169
      10 -> 20         0.12744
      11 -> 19        -0.12744

 Excited State  32:      Singlet-A1    11.6443 eV  106.48 nm  f=0.7865  <S**2>=0.000
       7 -> 14        -0.30512
       8 -> 13        -0.30512
       9 -> 18         0.34472
       9 -> 23         0.11564
      10 -> 13        -0.21683
      10 -> 17        -0.18701
      11 -> 14        -0.21683
      11 -> 16        -0.18701

 Excited State  33:      Singlet-A1    12.6082 eV   98.34 nm  f=0.0910  <S**2>=0.000
       6 -> 12         0.69850

 Excited state symmetry could not be determined.
 Excited State  34:      Singlet-?Sym   12.7026 eV   97.61 nm  f=0.1835  <S**2>=0.000
       6 -> 15         0.11543
       7 -> 14         0.30750
       8 -> 13         0.30750
       9 -> 23         0.22488
      10 -> 13        -0.20165
      10 -> 17        -0.15492
      10 -> 21         0.20101
      11 -> 14        -0.20165
      11 -> 16        -0.15493
      11 -> 22        -0.20100

 Excited State  35:      Singlet-E     13.0647 eV   94.90 nm  f=0.0174  <S**2>=0.000
       6 -> 13         0.56605
       8 -> 15        -0.36017
      10 -> 23         0.11775

 Excited State  36:      Singlet-E     13.0647 eV   94.90 nm  f=0.0174  <S**2>=0.000
       6 -> 14         0.56605
       7 -> 15        -0.36016
      11 -> 23         0.11775

 Excited State  37:      Singlet-E     13.1785 eV   94.08 nm  f=0.0115  <S**2>=0.000
       6 -> 14         0.30525
       7 -> 15         0.60319

 Excited State  38:      Singlet-E     13.1785 eV   94.08 nm  f=0.0115  <S**2>=0.000
       6 -> 13         0.30525
       8 -> 15         0.60319

 Excited state symmetry could not be determined.
 Excited State  39:      Singlet-?Sym   13.3542 eV   92.84 nm  f=0.0026  <S**2>=0.000
      10 -> 21         0.49349
      11 -> 22         0.49349

 Excited state symmetry could not be determined.
 Excited State  40:      Singlet-?Sym   13.3542 eV   92.84 nm  f=0.0026  <S**2>=0.000
      10 -> 22        -0.49349
      11 -> 21         0.49350

 Excited state symmetry could not be determined.
 Excited State  41:      Singlet-?Sym   13.3928 eV   92.58 nm  f=0.0000  <S**2>=0.000
      10 -> 22         0.49999
      11 -> 21         0.49998

 Excited State  42:      Singlet-E     13.6664 eV   90.72 nm  f=0.0330  <S**2>=0.000
       9 -> 22         0.68121
      11 -> 23         0.15582

 Excited State  43:      Singlet-E     13.6664 eV   90.72 nm  f=0.0330  <S**2>=0.000
       9 -> 21         0.68121
      10 -> 23        -0.15582

 Excited state symmetry could not be determined.
 Excited State  44:      Singlet-?Sym   13.7661 eV   90.07 nm  f=0.0000  <S**2>=0.000
       7 -> 17        -0.49999
       8 -> 16         0.49999

 Excited state symmetry could not be determined.
 Excited State  45:      Singlet-?Sym   13.8794 eV   89.33 nm  f=0.0655  <S**2>=0.000
       7 -> 17         0.47438
       8 -> 16         0.47438
      10 -> 23        -0.16066

 Excited state symmetry could not be determined.
 Excited State  46:      Singlet-?Sym   13.8794 eV   89.33 nm  f=0.0655  <S**2>=0.000
       7 -> 16        -0.47438
       8 -> 17         0.47438
      11 -> 23        -0.16066

 Excited state symmetry could not be determined.
 Excited State  47:      Singlet-?Sym   13.9983 eV   88.57 nm  f=0.0148  <S**2>=0.000
       6 -> 15        -0.27817
       6 -> 18        -0.10186
       9 -> 24         0.23372
      10 -> 21         0.37677
      11 -> 22        -0.37677

 Excited State  48:      Singlet-E     14.0172 eV   88.45 nm  f=0.0065  <S**2>=0.000
       6 -> 14        -0.12799
       9 -> 22        -0.12747
      11 -> 23         0.62739
      11 -> 24         0.16894

 Excited State  49:      Singlet-E     14.0172 eV   88.45 nm  f=0.0065  <S**2>=0.000
       6 -> 13        -0.12799
       9 -> 21         0.12747
      10 -> 23         0.62739
      10 -> 24         0.16894

 Excited State  50:      Singlet-E     14.2314 eV   87.12 nm  f=0.0004  <S**2>=0.000
      11 -> 23        -0.15058
      11 -> 24         0.67426

 Excited State  51:      Singlet-E     14.2314 eV   87.12 nm  f=0.0004  <S**2>=0.000
      10 -> 23        -0.15057
      10 -> 24         0.67426

 Excited State  52:      Singlet-A1    14.3338 eV   86.50 nm  f=0.0003  <S**2>=0.000
       6 -> 15         0.43667
       6 -> 18        -0.15787
       7 -> 16        -0.31926
       8 -> 17        -0.31926
       9 -> 24         0.19169

 Excited State  53:      Singlet-A1    14.4659 eV   85.71 nm  f=0.2739  <S**2>=0.000
       6 -> 15         0.20066
       6 -> 18         0.10881
       7 -> 16         0.21702
       7 -> 19        -0.11728
       8 -> 17         0.21702
       8 -> 20        -0.11728
       9 -> 24         0.54503

 Excited state symmetry could not be determined.
 Excited State  54:      Singlet-?Sym   14.5101 eV   85.45 nm  f=0.0000  <S**2>=0.000
       7 -> 20         0.49983
       8 -> 19        -0.49983

 Excited state symmetry could not be determined.
 Excited State  55:      Singlet-?Sym   14.5176 eV   85.40 nm  f=0.0391  <S**2>=0.000
       6 -> 15        -0.25408
       7 -> 19         0.41495
       8 -> 20         0.41495
       9 -> 24         0.27462

 Excited State  56:      Singlet-E     14.5921 eV   84.97 nm  f=0.0069  <S**2>=0.000
       6 -> 17         0.10764
       7 -> 20        -0.23001
       8 -> 18         0.60404
       8 -> 19        -0.23002

 Excited State  57:      Singlet-E     14.5921 eV   84.97 nm  f=0.0069  <S**2>=0.000
       6 -> 16         0.10765
       7 -> 18         0.60404
       7 -> 19         0.23002
       8 -> 20        -0.23002

 Excited State  58:      Singlet-A1    14.9092 eV   83.16 nm  f=0.0026  <S**2>=0.000
       6 -> 18         0.12474
       9 -> 23         0.55377
      10 -> 26         0.21085
      10 -> 28         0.12919
      11 -> 25        -0.21085
      11 -> 29        -0.12919

 Excited State  59:      Singlet-E     15.0339 eV   82.47 nm  f=0.1161  <S**2>=0.000
       6 -> 17         0.59817
       7 -> 20        -0.18113
       8 -> 18        -0.24282
       8 -> 19        -0.18113

 Excited State  60:      Singlet-E     15.0339 eV   82.47 nm  f=0.1161  <S**2>=0.000
       6 -> 16         0.59818
       7 -> 18        -0.24282
       7 -> 19         0.18113
       8 -> 20        -0.18113

 Excited State  61:      Singlet-E     15.1391 eV   81.90 nm  f=0.0690  <S**2>=0.000
       6 -> 17         0.33810
       7 -> 20         0.32334
       8 -> 18         0.22423
       8 -> 19         0.32334
      10 -> 25         0.21129
      11 -> 26        -0.21129

 Excited State  62:      Singlet-E     15.1391 eV   81.90 nm  f=0.0690  <S**2>=0.000
       6 -> 16         0.33810
       7 -> 18         0.22423
       7 -> 19        -0.32334
       8 -> 20         0.32334
      10 -> 26        -0.21129
      11 -> 25        -0.21129

 Excited State  63:      Singlet-A1    15.3192 eV   80.93 nm  f=0.0056  <S**2>=0.000
       6 -> 15         0.31091
       7 -> 16         0.25548
       7 -> 19         0.21523
       8 -> 17         0.25548
       8 -> 20         0.21523
       9 -> 24        -0.16073
       9 -> 27        -0.17438
      10 -> 21         0.13431
      11 -> 22        -0.13431

 Excited state symmetry could not be determined.
 Excited State  64:      Singlet-?Sym   15.4350 eV   80.33 nm  f=0.0000  <S**2>=0.000
      10 -> 25         0.49799
      11 -> 26         0.49798

 Excited state symmetry could not be determined.
 Excited State  65:      Singlet-?Sym   15.5848 eV   79.55 nm  f=0.0000  <S**2>=0.000
       9 -> 23         0.15295
      10 -> 26        -0.41647
      10 -> 28         0.23455
      11 -> 25         0.41647
      11 -> 29        -0.23455

 Excited State  66:      Singlet-E     15.7801 eV   78.57 nm  f=0.0277  <S**2>=0.000
       6 -> 20        -0.38415
       9 -> 26         0.53595
      10 -> 25         0.15108
      11 -> 26        -0.15108

 Excited State  67:      Singlet-E     15.7801 eV   78.57 nm  f=0.0277  <S**2>=0.000
       6 -> 19         0.38417
       9 -> 25         0.53593
      10 -> 26         0.15108
      11 -> 25         0.15108

 Excited State  68:      Singlet-E     15.8010 eV   78.47 nm  f=0.0157  <S**2>=0.000
       6 -> 19         0.57325
       9 -> 25        -0.40716

 Excited State  69:      Singlet-E     15.8010 eV   78.47 nm  f=0.0157  <S**2>=0.000
       6 -> 20         0.57326
       9 -> 26         0.40714

 Excited State  70:      Singlet-E     15.9543 eV   77.71 nm  f=0.1563  <S**2>=0.000
       6 -> 20        -0.12117
       9 -> 26         0.20778
      10 -> 25        -0.30819
      10 -> 27         0.40003
      10 -> 29        -0.13795
      11 -> 26         0.30819
      11 -> 28         0.13795

 Excited State  71:      Singlet-E     15.9543 eV   77.71 nm  f=0.1563  <S**2>=0.000
       6 -> 19        -0.12117
       9 -> 25        -0.20777
      10 -> 26         0.30819
      10 -> 28         0.13795
      11 -> 25         0.30819
      11 -> 27         0.40002
      11 -> 29         0.13796

 Excited State  72:      Singlet-E     16.0906 eV   77.05 nm  f=0.1432  <S**2>=0.000
      10 -> 25         0.19279
      10 -> 27         0.56100
      10 -> 29         0.14905
      11 -> 26        -0.19279
      11 -> 28        -0.14905

 Excited State  73:      Singlet-E     16.0906 eV   77.05 nm  f=0.1432  <S**2>=0.000
      10 -> 26        -0.19279
      10 -> 28        -0.14904
      11 -> 25        -0.19279
      11 -> 27         0.56100
      11 -> 29        -0.14905

 Excited state symmetry could not be determined.
 Excited State  74:      Singlet-?Sym   16.2497 eV   76.30 nm  f=0.0000  <S**2>=0.000
      10 -> 29         0.49807
      11 -> 28         0.49806

 Excited State  75:      Singlet-A1    16.3390 eV   75.88 nm  f=0.0811  <S**2>=0.000
       9 -> 27         0.66133

 Excited state symmetry could not be determined.
 Excited State  76:      Singlet-?Sym   16.4108 eV   75.55 nm  f=0.1730  <S**2>=0.000
       9 -> 28         0.20962
      10 -> 25         0.12179
      10 -> 29        -0.39298
      10 -> 30        -0.30554
      11 -> 26        -0.12179
      11 -> 28         0.39299

 Excited state symmetry could not be determined.
 Excited State  77:      Singlet-?Sym   16.4108 eV   75.55 nm  f=0.1730  <S**2>=0.000
       9 -> 29        -0.20962
      10 -> 26        -0.12179
      10 -> 28         0.39299
      11 -> 25        -0.12179
      11 -> 29         0.39299
      11 -> 30        -0.30554

 Excited State  78:      Singlet-E     16.5130 eV   75.08 nm  f=0.0255  <S**2>=0.000
       9 -> 28         0.25536
      10 -> 29        -0.13173
      10 -> 30         0.61317
      11 -> 28         0.13174

 Excited State  79:      Singlet-E     16.5130 eV   75.08 nm  f=0.0255  <S**2>=0.000
       9 -> 29        -0.25536
      10 -> 28         0.13173
      11 -> 29         0.13173
      11 -> 30         0.61317

 Excited State  80:      Singlet-E     16.6115 eV   74.64 nm  f=0.0133  <S**2>=0.000
       9 -> 28         0.61269
      10 -> 29         0.16216
      10 -> 30        -0.14511
      11 -> 28        -0.16216

 Excited State  81:      Singlet-E     16.6115 eV   74.64 nm  f=0.0133  <S**2>=0.000
       9 -> 29         0.61269
      10 -> 28         0.16216
      11 -> 29         0.16216
      11 -> 30         0.14511

 Excited State  82:      Singlet-A1    16.6350 eV   74.53 nm  f=0.1290  <S**2>=0.000
       6 -> 18         0.46299
       6 -> 23         0.11985
       9 -> 30         0.41983
      10 -> 32         0.14083
      11 -> 33        -0.14083

 Excited State  83:      Singlet-E     16.6847 eV   74.31 nm  f=0.0098  <S**2>=0.000
       7 -> 22        -0.18904
       8 -> 21        -0.18905
      10 -> 31         0.65073

 Excited State  84:      Singlet-E     16.6847 eV   74.31 nm  f=0.0098  <S**2>=0.000
       7 -> 21         0.18904
       8 -> 22        -0.18904
      11 -> 31         0.65073

 Excited state symmetry could not be determined.
 Excited State  85:      Singlet-?Sym   16.7171 eV   74.17 nm  f=0.0020  <S**2>=0.000
       7 -> 21        -0.45977
       8 -> 22         0.45978
      11 -> 31         0.27108

 Excited state symmetry could not be determined.
 Excited State  86:      Singlet-?Sym   16.7171 eV   74.17 nm  f=0.0020  <S**2>=0.000
       7 -> 22         0.45977
       8 -> 21         0.45977
      10 -> 31         0.27109

 Excited state symmetry could not be determined.
 Excited State  87:      Singlet-?Sym   16.7462 eV   74.04 nm  f=0.0000  <S**2>=0.000
       7 -> 21         0.49999
       8 -> 22         0.49999

 Excited State  88:      Singlet-A1    16.8216 eV   73.71 nm  f=0.1629  <S**2>=0.000
       6 -> 18        -0.36061
       6 -> 23        -0.12973
       9 -> 30         0.54218

 Excited state symmetry could not be determined.
 Excited State  89:      Singlet-?Sym   16.9192 eV   73.28 nm  f=0.0846  <S**2>=0.000
       7 -> 22        -0.43864
       8 -> 21         0.43864
      10 -> 32        -0.21691
      11 -> 33         0.21692

 Excited State  90:      Singlet-A2    16.9554 eV   73.12 nm  f=0.0000  <S**2>=0.000
       9 -> 31         0.68739
      10 -> 33         0.11712
      11 -> 32         0.11711

 Excited state symmetry could not be determined.
 Excited State  91:      Singlet-?Sym   16.9698 eV   73.06 nm  f=0.0000  <S**2>=0.000
       9 -> 31        -0.16570
      10 -> 33         0.48588
      11 -> 32         0.48587

 Excited state symmetry could not be determined.
 Excited State  92:      Singlet-?Sym   17.0547 eV   72.70 nm  f=0.0565  <S**2>=0.000
       7 -> 24         0.13073
       9 -> 33         0.17345
      10 -> 32         0.45978
      11 -> 33         0.45978

 Excited state symmetry could not be determined.
 Excited State  93:      Singlet-?Sym   17.0547 eV   72.70 nm  f=0.0565  <S**2>=0.000
       8 -> 24         0.13073
       9 -> 32        -0.17345
      10 -> 33        -0.45977
      11 -> 32         0.45978

 Excited state symmetry could not be determined.
 Excited State  94:      Singlet-?Sym   17.0905 eV   72.55 nm  f=0.0179  <S**2>=0.000
       6 -> 18         0.13559
       7 -> 22         0.16683
       8 -> 21        -0.16683
       9 -> 27         0.14843
       9 -> 30         0.11676
      10 -> 28        -0.26370
      10 -> 32        -0.25961
      11 -> 29         0.26370
      11 -> 33         0.25960

 Excited State  95:      Singlet-E     17.2421 eV   71.91 nm  f=0.0861  <S**2>=0.000
       9 -> 33         0.67380

 Excited State  96:      Singlet-E     17.2421 eV   71.91 nm  f=0.0861  <S**2>=0.000
       9 -> 32         0.67380

 Excited State  97:      Singlet-E     17.3336 eV   71.53 nm  f=0.0036  <S**2>=0.000
       8 -> 23         0.67560
       8 -> 24         0.18746

 Excited State  98:      Singlet-E     17.3336 eV   71.53 nm  f=0.0036  <S**2>=0.000
       7 -> 23         0.67560
       7 -> 24         0.18746

 Excited State  99:      Singlet-E     17.7715 eV   69.77 nm  f=0.2198  <S**2>=0.000
       8 -> 23        -0.16812
       8 -> 24         0.64365

 Excited State 100:      Singlet-E     17.7715 eV   69.77 nm  f=0.2198  <S**2>=0.000
       7 -> 23        -0.16812
       7 -> 24         0.64365

 Excited state symmetry could not be determined.
 Excited State 101:      Singlet-?Sym   17.8418 eV   69.49 nm  f=0.0000  <S**2>=0.000
       6 -> 18        -0.10468
       6 -> 24         0.16162
       9 -> 23         0.20320
       9 -> 34         0.14987
      10 -> 13         0.10319
      10 -> 26        -0.11294
      10 -> 28        -0.23772
      10 -> 32         0.28065
      11 -> 14         0.10319
      11 -> 25         0.11294
      11 -> 29         0.23772
      11 -> 33        -0.28065

 The electronic state is 1-A1.
 Alpha  occ. eigenvalues --  -13.99131  -9.95242  -9.93819  -0.82361  -0.70801
 Alpha  occ. eigenvalues --   -0.46795  -0.42369  -0.42369  -0.30943  -0.30050
 Alpha  occ. eigenvalues --   -0.30050
 Alpha virt. eigenvalues --   -0.00996  -0.00732  -0.00732   0.05928   0.08208
 Alpha virt. eigenvalues --    0.08208   0.10845   0.11149   0.11149   0.19175
 Alpha virt. eigenvalues --    0.19175   0.21076   0.21908   0.27114   0.27114

 Mulliken charges:
               1
     1  C    0.340586
     2  C   -0.323159
     3  N   -0.035845
     4  H    0.006139
     5  H    0.006139
     6  H    0.006139
 Sum of Mulliken charges =  -0.00000

 Dipole moment (field-independent basis, Debye):
    X=             -0.0000    Y=              0.0000    Z=             -3.9411  Tot=              3.9411
 Quadrupole moment (field-independent basis, Debye-Ang):
   XX=            -17.6182   YY=            -17.6182   ZZ=            -21.0112
   XY=             -0.0000   XZ=              0.0000   YZ=              0.0000

 Normal termination of Gaussian 16 at Mon Mar 21 20:12:33 2022.
