 Gaussian 16, Revision C.01,
 Gaussian 16:  EM64L-G16RevC.01  3-Jul-2019

 ----------------------------------------------------------------------
 #P TD(Nstates=10000) pbepbe/Gen SCF(maxcycles=100) Int(Grid=ultrafine)
 ----------------------------------------------------------------------

 ---------------------
 xGDB7_00001_tier4.com
 ---------------------
 Symbolic Z-matrix:
 Charge =  0 Multiplicity = 1

                         Standard orientation:
 ---------------------------------------------------------------------
 Center     Atomic      Atomic             Coordinates (Angstroms)
 Number     Number       Type             X           Y           Z
 ---------------------------------------------------------------------
      1          9           0        0.000000    0.000000    0.688193
      2          9           0        0.000000    0.000000   -0.688193
 ---------------------------------------------------------------------

 SCF Done:  E(RPBE-PBE) =  -199.187098950     A.U. after   10 cycles

 Excitation energies and oscillator strengths:

 Excited state symmetry could not be determined.
 Excited State   1:      Singlet-?Sym    4.7296 eV  262.14 nm  f=0.0001  <S**2>=0.000
       8 -> 10         0.66514
       9 -> 10        -0.24540
 This state for optimization and/or second-order correction.
 Total Energy, E(TD-HF/TD-DFT) =  -199.013288617
 Copying the excited state density for this state as the 1-particle RhoCI density.

 Excited state symmetry could not be determined.
 Excited State   2:      Singlet-?Sym    4.7296 eV  262.14 nm  f=0.0001  <S**2>=0.000
       8 -> 10         0.24540
       9 -> 10         0.66514

 Excited state symmetry could not be determined.
 Excited State   3:      Singlet-?Sym    8.3903 eV  147.77 nm  f=0.0000  <S**2>=0.000
       7 -> 10         0.70522

 Excited state symmetry could not be determined.
 Excited State   4:      Singlet-?Sym    8.3903 eV  147.77 nm  f=0.0000  <S**2>=0.000
       6 -> 10         0.70522

 Excited state symmetry could not be determined.
 Excited State   5:      Singlet-?Sym   11.7550 eV  105.47 nm  f=0.0000  <S**2>=0.000
       8 -> 11         0.23669
       9 -> 11         0.66611

 Excited state symmetry could not be determined.
 Excited State   6:      Singlet-?Sym   11.7550 eV  105.47 nm  f=0.0000  <S**2>=0.000
       8 -> 11         0.66611
       9 -> 11        -0.23669

 Excited state symmetry could not be determined.
 Excited State   7:      Singlet-?Sym   11.8628 eV  104.51 nm  f=0.0224  <S**2>=0.000
       8 -> 12         0.69699
       9 -> 12        -0.11819

 Excited state symmetry could not be determined.
 Excited State   8:      Singlet-?Sym   11.8628 eV  104.51 nm  f=0.0224  <S**2>=0.000
       8 -> 12         0.11819
       9 -> 12         0.69699

 Excited state symmetry could not be determined.
 Excited State   9:      Singlet-?Sym   12.7353 eV   97.35 nm  f=0.2238  <S**2>=0.000
       5 -> 10        -0.33550
       8 -> 13         0.43996
       9 -> 14         0.43996

 Excited state symmetry could not be determined.
 Excited State  10:      Singlet-?Sym   12.8912 eV   96.18 nm  f=0.0000  <S**2>=0.000
       8 -> 13         0.49999
       9 -> 14        -0.49999

 Excited state symmetry could not be determined.
 Excited State  11:      Singlet-?Sym   12.8912 eV   96.18 nm  f=0.0000  <S**2>=0.000
       8 -> 14         0.49999
       9 -> 13         0.49999

 Excited state symmetry could not be determined.
 Excited State  12:      Singlet-?Sym   12.8960 eV   96.14 nm  f=0.0000  <S**2>=0.000
       8 -> 14        -0.50000
       9 -> 13         0.50000

 Excited state symmetry could not be determined.
 Excited State  13:      Singlet-?Sym   14.6265 eV   84.77 nm  f=0.0000  <S**2>=0.000
       8 -> 15        -0.49999
       9 -> 16         0.49999

 Excited state symmetry could not be determined.
 Excited State  14:      Singlet-?Sym   14.6265 eV   84.77 nm  f=0.0000  <S**2>=0.000
       8 -> 16         0.49999
       9 -> 15         0.49999

 Excited state symmetry could not be determined.
 Excited State  15:      Singlet-?Sym   14.6324 eV   84.73 nm  f=0.0000  <S**2>=0.000
       8 -> 17         0.55524
       9 -> 17        -0.43759

 Excited state symmetry could not be determined.
 Excited State  16:      Singlet-?Sym   14.6324 eV   84.73 nm  f=0.0000  <S**2>=0.000
       8 -> 17         0.43759
       9 -> 17         0.55524

 Excited state symmetry could not be determined.
 Excited State  17:      Singlet-?Sym   14.6787 eV   84.47 nm  f=0.0000  <S**2>=0.000
       8 -> 16        -0.50000
       9 -> 15         0.50000

 Excited state symmetry could not be determined.
 Excited State  18:      Singlet-?Sym   14.9637 eV   82.86 nm  f=0.0000  <S**2>=0.000
       6 -> 14        -0.12962
       7 -> 13        -0.12962
       8 -> 15         0.48125
       9 -> 16         0.48125

 Excited State  19:      Singlet-SGU   15.4430 eV   80.28 nm  f=0.4182  <S**2>=0.000
       5 -> 10         0.55709
       5 -> 12         0.24251
       6 -> 16        -0.11952
       7 -> 15        -0.11952
       8 -> 13         0.22006
       9 -> 14         0.22006
       5 <- 10        -0.10980

 Excited state symmetry could not be determined.
 Excited State  20:      Singlet-?Sym   15.5642 eV   79.66 nm  f=0.0952  <S**2>=0.000
       6 -> 11        -0.40365
       7 -> 11         0.57965

 Excited state symmetry could not be determined.
 Excited State  21:      Singlet-?Sym   15.5642 eV   79.66 nm  f=0.0952  <S**2>=0.000
       6 -> 11         0.57965
       7 -> 11         0.40365

 Excited state symmetry could not be determined.
 Excited State  22:      Singlet-?Sym   15.6155 eV   79.40 nm  f=0.0000  <S**2>=0.000
       6 -> 12        -0.21031
       7 -> 12         0.67497

 Excited state symmetry could not be determined.
 Excited State  23:      Singlet-?Sym   15.6155 eV   79.40 nm  f=0.0000  <S**2>=0.000
       6 -> 12         0.67497
       7 -> 12         0.21031

 Excited state symmetry could not be determined.
 Excited State  24:      Singlet-?Sym   16.5975 eV   74.70 nm  f=0.0000  <S**2>=0.000
       6 -> 13         0.49999
       7 -> 14         0.49999

 Excited state symmetry could not be determined.
 Excited State  25:      Singlet-?Sym   16.5975 eV   74.70 nm  f=0.0000  <S**2>=0.000
       6 -> 14        -0.49999
       7 -> 13         0.49999

 Excited state symmetry could not be determined.
 Excited State  26:      Singlet-?Sym   16.6256 eV   74.57 nm  f=0.0000  <S**2>=0.000
       6 -> 13         0.50000
       7 -> 14        -0.50000

 Excited state symmetry could not be determined.
 Excited State  27:      Singlet-?Sym   17.3482 eV   71.47 nm  f=0.0000  <S**2>=0.000
       5 -> 11        -0.31914
       6 -> 14         0.43045
       7 -> 13         0.43045

 Excited State  28:      Singlet-SGU   18.3043 eV   67.73 nm  f=0.0095  <S**2>=0.000
       5 -> 12         0.48473
       6 -> 16         0.36207
       7 -> 15         0.36207

 Excited state symmetry could not be determined.
 Excited State  29:      Singlet-?Sym   18.3744 eV   67.48 nm  f=0.0000  <S**2>=0.000
       6 -> 16        -0.49998
       7 -> 15         0.49998

 Excited state symmetry could not be determined.
 Excited State  30:      Singlet-?Sym   18.3744 eV   67.48 nm  f=0.0000  <S**2>=0.000
       6 -> 15         0.49998
       7 -> 16         0.49998

 Excited state symmetry could not be determined.
 Excited State  31:      Singlet-?Sym   18.4083 eV   67.35 nm  f=0.0000  <S**2>=0.000
       6 -> 15        -0.50000
       7 -> 16         0.50000

 Excited state symmetry could not be determined.
 Excited State  32:      Singlet-?Sym   18.4399 eV   67.24 nm  f=0.0515  <S**2>=0.000
       6 -> 17         0.32115
       7 -> 17         0.62739

 Excited state symmetry could not be determined.
 Excited State  33:      Singlet-?Sym   18.4399 eV   67.24 nm  f=0.0515  <S**2>=0.000
       6 -> 17         0.62739
       7 -> 17        -0.32115

 Excited State  34:      Singlet-SGG   18.5115 eV   66.98 nm  f=0.0000  <S**2>=0.000
       5 -> 11         0.62705
       6 -> 14         0.20810
       7 -> 13         0.20810

 Excited state symmetry could not be determined.
 Excited State  35:      Singlet-?Sym   19.2033 eV   64.56 nm  f=0.0175  <S**2>=0.000
       5 -> 13         0.70531

 Excited state symmetry could not be determined.
 Excited State  36:      Singlet-?Sym   19.2033 eV   64.56 nm  f=0.0175  <S**2>=0.000
       5 -> 14         0.70531

 Excited State  37:      Singlet-SGU   19.3605 eV   64.04 nm  f=0.0000  <S**2>=0.000
       5 -> 10        -0.24494
       5 -> 12         0.44658
       6 -> 16        -0.31943
       7 -> 15        -0.31943

 Excited state symmetry could not be determined.
 Excited State  38:      Singlet-?Sym   19.9820 eV   62.05 nm  f=0.0831  <S**2>=0.000
       8 -> 18         0.70451

 Excited state symmetry could not be determined.
 Excited State  39:      Singlet-?Sym   19.9820 eV   62.05 nm  f=0.0831  <S**2>=0.000
       9 -> 18         0.70451

 Excited state symmetry could not be determined.
 Excited State  40:      Singlet-?Sym   20.9486 eV   59.19 nm  f=0.0000  <S**2>=0.000
       5 -> 15        -0.26563
       5 -> 16         0.65526

 Excited state symmetry could not be determined.
 Excited State  41:      Singlet-?Sym   20.9486 eV   59.19 nm  f=0.0000  <S**2>=0.000
       5 -> 15         0.65526
       5 -> 16         0.26563

 Excited State  42:      Singlet-SGG   21.0049 eV   59.03 nm  f=0.0000  <S**2>=0.000
       5 -> 17         0.69799

 Excited state symmetry could not be determined.
 Excited State  43:      Singlet-?Sym   21.6719 eV   57.21 nm  f=0.0000  <S**2>=0.000
       8 -> 19         0.43971
       8 -> 20         0.23790
       9 -> 19        -0.23791
       9 -> 20         0.43970

 Excited state symmetry could not be determined.
 Excited State  44:      Singlet-?Sym   21.6719 eV   57.21 nm  f=0.0000  <S**2>=0.000
       8 -> 19         0.23791
       8 -> 20        -0.43970
       9 -> 19         0.43971
       9 -> 20         0.23790

 Excited state symmetry could not be determined.
 Excited State  45:      Singlet-?Sym   22.0541 eV   56.22 nm  f=0.0000  <S**2>=0.000
       8 -> 19        -0.45952
       8 -> 20         0.19573
       9 -> 19         0.19573
       9 -> 20         0.45953

 Excited state symmetry could not be determined.
 Excited State  46:      Singlet-?Sym   22.0541 eV   56.22 nm  f=0.0000  <S**2>=0.000
       8 -> 19         0.19573
       8 -> 20         0.45953
       9 -> 19         0.45952
       9 -> 20        -0.19573

 Excited state symmetry could not be determined.
 Excited State  47:      Singlet-?Sym   23.6617 eV   52.40 nm  f=0.0000  <S**2>=0.000
       6 -> 18         0.54446
       7 -> 18        -0.45089

 Excited state symmetry could not be determined.
 Excited State  48:      Singlet-?Sym   23.6617 eV   52.40 nm  f=0.0000  <S**2>=0.000
       6 -> 18         0.45089
       7 -> 18         0.54446

 Excited State  49:      Singlet-SGG   23.9673 eV   51.73 nm  f=0.0000  <S**2>=0.000
       4 -> 10         0.67728

 Excited state symmetry could not be determined.
 Excited State  50:      Singlet-?Sym   25.3332 eV   48.94 nm  f=0.0000  <S**2>=0.000
       6 -> 19         0.18861
       6 -> 20         0.46261
       7 -> 19         0.46261
       7 -> 20        -0.18861

 Excited state symmetry could not be determined.
 Excited State  51:      Singlet-?Sym   25.3332 eV   48.94 nm  f=0.0000  <S**2>=0.000
       6 -> 19         0.46261
       6 -> 20        -0.18861
       7 -> 19        -0.18861
       7 -> 20        -0.46261

 Excited state symmetry could not be determined.
 Excited State  52:      Singlet-?Sym   25.7654 eV   48.12 nm  f=0.0000  <S**2>=0.000
       8 -> 22        -0.49992
       9 -> 21         0.49992

 Excited state symmetry could not be determined.
 Excited State  53:      Singlet-?Sym   25.7654 eV   48.12 nm  f=0.0000  <S**2>=0.000
       8 -> 21         0.49992
       9 -> 22         0.49992

 Excited state symmetry could not be determined.
 Excited State  54:      Singlet-?Sym   25.8722 eV   47.92 nm  f=0.0000  <S**2>=0.000
       8 -> 21         0.50000
       9 -> 22        -0.50000

 Excited state symmetry could not be determined.
 Excited State  55:      Singlet-?Sym   26.1148 eV   47.48 nm  f=0.2464  <S**2>=0.000
       6 -> 19         0.26376
       6 -> 20         0.39578
       7 -> 19        -0.39578
       7 -> 20         0.26376
       8 -> 25         0.11940
       9 -> 24        -0.11940

 Excited state symmetry could not be determined.
 Excited State  56:      Singlet-?Sym   26.1148 eV   47.48 nm  f=0.2464  <S**2>=0.000
       6 -> 19         0.39578
       6 -> 20        -0.26376
       7 -> 19         0.26376
       7 -> 20         0.39578
       8 -> 24        -0.11940
       9 -> 25        -0.11940

 Excited State  57:      Singlet-SGU   26.2305 eV   47.27 nm  f=0.2800  <S**2>=0.000
       5 -> 18         0.63025
       8 -> 22         0.22588
       9 -> 21         0.22588

 Excited state symmetry could not be determined.
 Excited State  58:      Singlet-?Sym   27.4534 eV   45.16 nm  f=0.8494  <S**2>=0.000
       4 -> 11        -0.24311
       5 -> 10        -0.12641
       5 -> 18        -0.28970
       8 -> 22         0.40774
       9 -> 21         0.40774

 Excited state symmetry could not be determined.
 Excited State  59:      Singlet-?Sym   27.5576 eV   44.99 nm  f=0.0127  <S**2>=0.000
       8 -> 23         0.53933
       9 -> 23         0.43415

 Excited state symmetry could not be determined.
 Excited State  60:      Singlet-?Sym   27.5576 eV   44.99 nm  f=0.0127  <S**2>=0.000
       8 -> 23        -0.43415
       9 -> 23         0.53933

 Excited state symmetry could not be determined.
 Excited State  61:      Singlet-?Sym   27.5914 eV   44.94 nm  f=0.0000  <S**2>=0.000
       8 -> 24         0.47836
       8 -> 25         0.14405
       9 -> 24         0.14405
       9 -> 25        -0.47836

 Excited state symmetry could not be determined.
 Excited State  62:      Singlet-?Sym   27.5914 eV   44.94 nm  f=0.0000  <S**2>=0.000
       8 -> 24        -0.14405
       8 -> 25         0.47836
       9 -> 24         0.47836
       9 -> 25         0.14405

 Excited state symmetry could not be determined.
 Excited State  63:      Singlet-?Sym   28.0530 eV   44.20 nm  f=0.0000  <S**2>=0.000
       5 -> 19         0.70563

 Excited state symmetry could not be determined.
 Excited State  64:      Singlet-?Sym   28.0530 eV   44.20 nm  f=0.0000  <S**2>=0.000
       5 -> 20         0.70563

 Excited state symmetry could not be determined.
 Excited State  65:      Singlet-?Sym   28.4187 eV   43.63 nm  f=0.6633  <S**2>=0.000
       6 -> 20        -0.12170
       7 -> 19         0.12170
       8 -> 23         0.10747
       8 -> 24         0.23614
       8 -> 25         0.39854
       9 -> 24        -0.39853
       9 -> 25         0.23615

 Excited state symmetry could not be determined.
 Excited State  66:      Singlet-?Sym   28.4187 eV   43.63 nm  f=0.6633  <S**2>=0.000
       6 -> 19         0.12170
       7 -> 20         0.12170
       8 -> 24         0.39853
       8 -> 25        -0.23615
       9 -> 23        -0.10747
       9 -> 24         0.23614
       9 -> 25         0.39854

 Excited state symmetry could not be determined.
 Excited State  67:      Singlet-?Sym   29.4245 eV   42.14 nm  f=0.0000  <S**2>=0.000
       6 -> 22         0.46744
       7 -> 21         0.46744
       8 -> 28        -0.17462
       9 -> 27        -0.17462

 Excited state symmetry could not be determined.
 Excited State  68:      Singlet-?Sym   29.4245 eV   42.14 nm  f=0.0000  <S**2>=0.000
       6 -> 21         0.46744
       7 -> 22        -0.46744
       8 -> 27         0.17463
       9 -> 28        -0.17463

 Excited State  69:      Singlet-SGG   29.4359 eV   42.12 nm  f=0.0000  <S**2>=0.000
       4 -> 12         0.65666
       6 -> 21         0.18075
       7 -> 22         0.18075

 Excited state symmetry could not be determined.
 Excited State  70:      Singlet-?Sym   29.6018 eV   41.88 nm  f=0.0000  <S**2>=0.000
       6 -> 22        -0.50000
       7 -> 21         0.50000

 Excited state symmetry could not be determined.
 Excited State  71:      Singlet-?Sym   29.6703 eV   41.79 nm  f=0.0000  <S**2>=0.000
       8 -> 26         0.69712

 Excited state symmetry could not be determined.
 Excited State  72:      Singlet-?Sym   29.6703 eV   41.79 nm  f=0.0000  <S**2>=0.000
       9 -> 26         0.69712

 Excited state symmetry could not be determined.
 Excited State  73:      Singlet-?Sym   29.6781 eV   41.78 nm  f=0.0000  <S**2>=0.000
       6 -> 21        -0.17534
       7 -> 22         0.17534
       8 -> 27         0.46819
       9 -> 28        -0.46819

 Excited state symmetry could not be determined.
 Excited State  74:      Singlet-?Sym   29.6781 eV   41.78 nm  f=0.0000  <S**2>=0.000
       6 -> 22         0.17533
       7 -> 21         0.17533
       8 -> 28         0.46819
       9 -> 27         0.46819

 Excited state symmetry could not be determined.
 Excited State  75:      Singlet-?Sym   29.7248 eV   41.71 nm  f=0.0000  <S**2>=0.000
       8 -> 28        -0.50000
       9 -> 27         0.50000

 Excited State  76:      Singlet-SGU   29.7615 eV   41.66 nm  f=0.1040  <S**2>=0.000
       3 -> 10         0.10581
       4 -> 11         0.65377
       5 -> 18        -0.10373
       8 -> 22         0.13031
       9 -> 21         0.13031

 Excited state symmetry could not be determined.
 Excited State  77:      Singlet-?Sym   30.4347 eV   40.74 nm  f=0.0000  <S**2>=0.000
       4 -> 12        -0.23719
       6 -> 21         0.38184
       7 -> 22         0.38184
       8 -> 27         0.26270
       9 -> 28         0.26270

 Excited state symmetry could not be determined.
 Excited State  78:      Singlet-?Sym   30.4953 eV   40.66 nm  f=0.0000  <S**2>=0.000
       4 -> 13         0.65816
       4 -> 14        -0.22408

 Excited state symmetry could not be determined.
 Excited State  79:      Singlet-?Sym   30.4953 eV   40.66 nm  f=0.0000  <S**2>=0.000
       4 -> 13         0.22408
       4 -> 14         0.65816

 Excited state symmetry could not be determined.
 Excited State  80:      Singlet-?Sym   31.0081 eV   39.98 nm  f=0.0000  <S**2>=0.000
       4 -> 10        -0.14781
       5 -> 26        -0.12410
       6 -> 21        -0.24951
       7 -> 22        -0.24951
       8 -> 27         0.40278
       9 -> 28         0.40278

 Excited state symmetry could not be determined.
 Excited State  81:      Singlet-?Sym   31.2856 eV   39.63 nm  f=0.0000  <S**2>=0.000
       7 -> 23         0.69967

 Excited state symmetry could not be determined.
 Excited State  82:      Singlet-?Sym   31.2856 eV   39.63 nm  f=0.0000  <S**2>=0.000
       6 -> 23         0.69967

 Excited state symmetry could not be determined.
 Excited State  83:      Singlet-?Sym   31.2992 eV   39.61 nm  f=0.0000  <S**2>=0.000
       6 -> 24         0.16388
       6 -> 25         0.47232
       7 -> 24        -0.47231
       7 -> 25         0.16389

 Excited state symmetry could not be determined.
 Excited State  84:      Singlet-?Sym   31.2992 eV   39.61 nm  f=0.0000  <S**2>=0.000
       6 -> 24         0.47231
       6 -> 25        -0.16389
       7 -> 24         0.16388
       7 -> 25         0.47232

 Excited State  85:      Singlet-SGU   31.3102 eV   39.60 nm  f=0.0736  <S**2>=0.000
       3 -> 10         0.62296
       4 -> 17        -0.16930
       5 -> 23        -0.11724
       6 -> 28         0.16580
       7 -> 27         0.16580

 Excited state symmetry could not be determined.
 Excited State  86:      Singlet-?Sym   31.7833 eV   39.01 nm  f=0.0000  <S**2>=0.000
       6 -> 24        -0.46836
       6 -> 25        -0.14944
       7 -> 24        -0.14944
       7 -> 25         0.46835

 Excited state symmetry could not be determined.
 Excited State  87:      Singlet-?Sym   31.7833 eV   39.01 nm  f=0.0000  <S**2>=0.000
       6 -> 24        -0.14944
       6 -> 25         0.46835
       7 -> 24         0.46836
       7 -> 25         0.14944

 Excited state symmetry could not be determined.
 Excited State  88:      Singlet-?Sym   32.1803 eV   38.53 nm  f=0.0685  <S**2>=0.000
       4 -> 16         0.66795
       5 -> 21        -0.21973

 Excited state symmetry could not be determined.
 Excited State  89:      Singlet-?Sym   32.1803 eV   38.53 nm  f=0.0685  <S**2>=0.000
       4 -> 15         0.66795
       5 -> 22        -0.21973

 Excited State  90:      Singlet-SGU   32.2070 eV   38.50 nm  f=0.0583  <S**2>=0.000
       3 -> 10         0.12888
       4 -> 17         0.68411

 Excited state symmetry could not be determined.
 Excited State  91:      Singlet-?Sym   32.5828 eV   38.05 nm  f=0.2354  <S**2>=0.000
       4 -> 15        -0.11625
       4 -> 16         0.17644
       5 -> 21         0.52116
       5 -> 22        -0.34335
       6 -> 26        -0.19401
       7 -> 26         0.12782

 Excited state symmetry could not be determined.
 Excited State  92:      Singlet-?Sym   32.5828 eV   38.05 nm  f=0.2354  <S**2>=0.000
       4 -> 15         0.17644
       4 -> 16         0.11625
       5 -> 21         0.34335
       5 -> 22         0.52116
       6 -> 26        -0.12782
       7 -> 26        -0.19401

 Excited state symmetry could not be determined.
 Excited State  93:      Singlet-?Sym   33.3996 eV   37.12 nm  f=0.0000  <S**2>=0.000
       6 -> 28        -0.49596
       7 -> 27         0.49596

 Excited state symmetry could not be determined.
 Excited State  94:      Singlet-?Sym   33.3996 eV   37.12 nm  f=0.0000  <S**2>=0.000
       6 -> 27         0.49596
       7 -> 28         0.49596

 Excited state symmetry could not be determined.
 Excited State  95:      Singlet-?Sym   33.4544 eV   37.06 nm  f=0.0000  <S**2>=0.000
       6 -> 27         0.50000
       7 -> 28        -0.50000

 Excited state symmetry could not be determined.
 Excited State  96:      Singlet-?Sym   33.5735 eV   36.93 nm  f=0.1565  <S**2>=0.000
       5 -> 21         0.18067
       5 -> 22        -0.11526
       6 -> 26         0.56195
       7 -> 26        -0.35852

 Excited state symmetry could not be determined.
 Excited State  97:      Singlet-?Sym   33.5735 eV   36.93 nm  f=0.1565  <S**2>=0.000
       5 -> 21         0.11526
       5 -> 22         0.18067
       6 -> 26         0.35852
       7 -> 26         0.56195

 Excited State  98:      Singlet-SGU   33.6173 eV   36.88 nm  f=0.0032  <S**2>=0.000
       5 -> 23         0.55660
       6 -> 28         0.30494
       7 -> 27         0.30494

 Excited state symmetry could not be determined.
 Excited State  99:      Singlet-?Sym   34.0058 eV   36.46 nm  f=0.0000  <S**2>=0.000
       5 -> 24         0.70147

 Excited state symmetry could not be determined.
 Excited State 100:      Singlet-?Sym   34.0058 eV   36.46 nm  f=0.0000  <S**2>=0.000
       5 -> 25         0.70147

 Excited State 101:      Singlet-SGU   34.9068 eV   35.52 nm  f=0.0991  <S**2>=0.000
       3 -> 10         0.23046
       5 -> 23         0.40684
       6 -> 28        -0.33840
       7 -> 27        -0.33840
       8 -> 30        -0.12931
       9 -> 29        -0.12931

 Excited state symmetry could not be determined.
 Excited State 102:      Singlet-?Sym   36.0122 eV   34.43 nm  f=0.0000  <S**2>=0.000
       5 -> 27         0.69520
       5 -> 28         0.12194

 Excited state symmetry could not be determined.
 Excited State 103:      Singlet-?Sym   36.0122 eV   34.43 nm  f=0.0000  <S**2>=0.000
       5 -> 27        -0.12194
       5 -> 28         0.69520

 Excited State 104:      Singlet-SGG   36.3466 eV   34.11 nm  f=0.0000  <S**2>=0.000
       3 -> 11        -0.34733
       5 -> 26         0.60532

 Excited State 105:      Singlet-SGG   36.6736 eV   33.81 nm  f=0.0000  <S**2>=0.000
       3 -> 11         0.59304
       4 -> 18        -0.19533
       5 -> 26         0.31552

 Excited State 106:      Singlet-SGU   36.7839 eV   33.71 nm  f=0.0012  <S**2>=0.000
       3 -> 12         0.70131

 The electronic state is 1-SGG.
 Alpha  occ. eigenvalues --  -24.38043 -24.38020  -1.25759  -0.98938  -0.57867
 Alpha  occ. eigenvalues --   -0.48466  -0.48466  -0.34760  -0.34760
 Alpha virt. eigenvalues --   -0.19803   0.08278   0.08901   0.12632   0.12632
 Alpha virt. eigenvalues --    0.19183   0.19183   0.19217   0.38405   0.45378
 Alpha virt. eigenvalues --    0.45378   0.60319   0.60319   0.66630   0.67214

 Mulliken charges:
               1
     1  F    0.000000
     2  F    0.000000
 Sum of Mulliken charges =   0.00000

 Dipole moment (field-independent basis, Debye):
    X=              0.0000    Y=              0.0000    Z=              0.0000  Tot=              0.0000
 Quadrupole moment (field-independent basis, Debye-Ang):
   XX=             -9.8902   YY=             -9.8902   ZZ=             -9.0404
   XY=              0.0000   XZ=              0.0000   YZ=              0.0000

 Normal termination of Gaussian 16 at Mon Mar 21 20:12:07 2022.
