 Gaussian 16, Revision C.01,
 Gaussian 16:  EM64L-G16RevC.01  3-Jul-2019

 ----------------------------------------------------------------------
 #P TD(Nstates=10000) pbepbe/Gen SCF(maxcycles=100) Int(Grid=ultrafine)
 ----------------------------------------------------------------------

 ---------------------
 xGDB7_00001_tier4.com
 ---------------------
 Symbolic Z-matrix:
 Charge =  0 Multiplicity = 1

                         Standard orientation:
 ---------------------------------------------------------------------
 Center     Atomic      Atomic             Coordinates (Angstroms)
 Number     Number       Type             X           Y           Z
 ---------------------------------------------------------------------
      1          6           0       -1.131573   -0.504386    0.000000
      2          6           0        0.000000    0.472223    0.000000
      3          6           0        1.284136    0.150792    0.000000
      4          1           0       -1.767446   -0.362776    0.877699
      5          1           0       -0.770122   -1.533458    0.000000
      6          1           0       -1.767446   -0.362776   -0.877699
      7          1           0       -0.276551    1.523465    0.000000
      8          1           0        1.608435   -0.884555    0.000000
      9          1           0        2.057749    0.908327    0.000000
 ---------------------------------------------------------------------

 SCF Done:  E(RPBE-PBE) =  -117.652703042     A.U. after   13 cycles

 Excitation energies and oscillator strengths:

 Excited State   1:      Singlet-A"     6.6765 eV  185.70 nm  f=0.0059  <S**2>=0.000
      12 -> 14         0.70689
 This state for optimization and/or second-order correction.
 Total Energy, E(TD-HF/TD-DFT) =  -117.407345972
 Copying the excited state density for this state as the 1-particle RhoCI density.

 Excited State   2:      Singlet-A"     7.4356 eV  166.74 nm  f=0.0346  <S**2>=0.000
      12 -> 15         0.68759
      12 -> 16        -0.16329

 Excited State   3:      Singlet-A'     7.4377 eV  166.70 nm  f=0.3683  <S**2>=0.000
       9 -> 13        -0.11917
      12 -> 13         0.68122

 Excited State   4:      Singlet-A"     7.4565 eV  166.28 nm  f=0.0029  <S**2>=0.000
      12 -> 15         0.16359
      12 -> 16         0.68444

 Excited State   5:      Singlet-A"     7.8188 eV  158.57 nm  f=0.0000  <S**2>=0.000
      11 -> 13         0.70055

 Excited State   6:      Singlet-A"     8.4258 eV  147.15 nm  f=0.0008  <S**2>=0.000
      10 -> 13         0.69805

 Excited State   7:      Singlet-A"     8.6097 eV  144.01 nm  f=0.0010  <S**2>=0.000
      12 -> 17         0.70060

 Excited State   8:      Singlet-A'     8.7037 eV  142.45 nm  f=0.0073  <S**2>=0.000
      11 -> 14         0.64998
      12 -> 18        -0.27537

 Excited State   9:      Singlet-A'     8.7927 eV  141.01 nm  f=0.0470  <S**2>=0.000
      11 -> 14         0.27309
      12 -> 18         0.64668

 Excited State  10:      Singlet-A"     9.1150 eV  136.02 nm  f=0.0163  <S**2>=0.000
      12 -> 19         0.70297

 Excited State  11:      Singlet-A'     9.3858 eV  132.10 nm  f=0.0623  <S**2>=0.000
      10 -> 14         0.68196
      11 -> 15         0.15576

 Excited State  12:      Singlet-A'     9.4280 eV  131.51 nm  f=0.0263  <S**2>=0.000
      10 -> 14        -0.15849
      11 -> 15         0.68188

 Excited State  13:      Singlet-A'     9.5402 eV  129.96 nm  f=0.1681  <S**2>=0.000
      11 -> 16         0.69155

 Excited State  14:      Singlet-A"     9.5738 eV  129.50 nm  f=0.0115  <S**2>=0.000
      12 -> 20         0.69911

 Excited State  15:      Singlet-A"     9.7933 eV  126.60 nm  f=0.0002  <S**2>=0.000
       8 -> 13         0.69530

 Excited State  16:      Singlet-A'     9.9312 eV  124.84 nm  f=0.0363  <S**2>=0.000
       9 -> 13         0.65652
      12 -> 21        -0.18151

 Excited State  17:      Singlet-A'     9.9827 eV  124.20 nm  f=0.0468  <S**2>=0.000
       9 -> 13         0.17066
      12 -> 13         0.10394
      12 -> 21         0.66247

 Excited State  18:      Singlet-A"    10.0902 eV  122.88 nm  f=0.0288  <S**2>=0.000
      12 -> 22         0.69057

 Excited State  19:      Singlet-A'    10.1388 eV  122.29 nm  f=0.0014  <S**2>=0.000
      10 -> 15         0.50387
      10 -> 16         0.48418

 Excited State  20:      Singlet-A'    10.1544 eV  122.10 nm  f=0.0637  <S**2>=0.000
      10 -> 15        -0.48073
      10 -> 16         0.50562

 Excited State  21:      Singlet-A"    10.3492 eV  119.80 nm  f=0.0007  <S**2>=0.000
      12 -> 23         0.70077

 Excited State  22:      Singlet-A"    10.5540 eV  117.48 nm  f=0.0936  <S**2>=0.000
       9 -> 14         0.69389

 Excited State  23:      Singlet-A'    10.6770 eV  116.12 nm  f=0.0301  <S**2>=0.000
       8 -> 14         0.31801
      11 -> 17         0.59900
      12 -> 24        -0.15372

 Excited State  24:      Singlet-A"    10.7290 eV  115.56 nm  f=0.0048  <S**2>=0.000
      11 -> 18         0.70266

 Excited State  25:      Singlet-A'    10.7461 eV  115.38 nm  f=0.0352  <S**2>=0.000
       8 -> 14         0.61732
      11 -> 17        -0.31561

 Excited State  26:      Singlet-A"    10.9700 eV  113.02 nm  f=0.0000  <S**2>=0.000
       7 -> 13         0.68634
      12 -> 25        -0.13570

 Excited State  27:      Singlet-A'    10.9825 eV  112.89 nm  f=0.0150  <S**2>=0.000
      11 -> 17         0.10607
      12 -> 24         0.64563

 Excited State  28:      Singlet-A'    11.1312 eV  111.38 nm  f=0.0642  <S**2>=0.000
      10 -> 17         0.18485
      11 -> 19         0.66901

 Excited State  29:      Singlet-A"    11.2292 eV  110.41 nm  f=0.0000  <S**2>=0.000
       9 -> 16         0.69775

 Excited State  30:      Singlet-A"    11.2496 eV  110.21 nm  f=0.0098  <S**2>=0.000
       9 -> 15         0.69482
      12 -> 25         0.10563

 Excited State  31:      Singlet-A"    11.2959 eV  109.76 nm  f=0.0746  <S**2>=0.000
       7 -> 13         0.10374
       9 -> 15        -0.11086
      10 -> 18         0.17598
      12 -> 25         0.65039

 Excited State  32:      Singlet-A'    11.3210 eV  109.52 nm  f=0.0676  <S**2>=0.000
       8 -> 15         0.29203
       8 -> 16        -0.14583
      10 -> 17         0.59387
      11 -> 19        -0.15572

 Excited State  33:      Singlet-A"    11.4683 eV  108.11 nm  f=0.0558  <S**2>=0.000
      10 -> 18         0.67102
      12 -> 25        -0.13955

 Excited State  34:      Singlet-A'    11.4816 eV  107.99 nm  f=0.0257  <S**2>=0.000
       8 -> 16         0.56547
      11 -> 20        -0.40825

 Excited State  35:      Singlet-A'    11.4935 eV  107.87 nm  f=0.0787  <S**2>=0.000
       8 -> 15         0.62480
      10 -> 17        -0.24937

 Excited State  36:      Singlet-A'    11.5895 eV  106.98 nm  f=0.0404  <S**2>=0.000
       8 -> 16         0.36770
      10 -> 17         0.15671
      11 -> 20         0.55495

 Excited State  37:      Singlet-A'    11.8119 eV  104.97 nm  f=0.0343  <S**2>=0.000
       7 -> 14        -0.47908
      10 -> 19         0.50843

 Excited State  38:      Singlet-A"    11.8202 eV  104.89 nm  f=0.0355  <S**2>=0.000
      11 -> 21         0.69694

 Excited State  39:      Singlet-A'    11.9200 eV  104.01 nm  f=0.0197  <S**2>=0.000
       7 -> 14         0.48861
      10 -> 19         0.43714
      11 -> 23         0.12982

 Excited State  40:      Singlet-A'    12.0571 eV  102.83 nm  f=0.1030  <S**2>=0.000
      11 -> 22        -0.27022
      12 -> 26         0.62332

 Excited State  41:      Singlet-A"    12.1837 eV  101.76 nm  f=0.0121  <S**2>=0.000
      12 -> 27         0.69809

 Excited State  42:      Singlet-A'    12.2015 eV  101.61 nm  f=0.0980  <S**2>=0.000
      11 -> 22         0.62837
      12 -> 26         0.26353

 Excited State  43:      Singlet-A'    12.2676 eV  101.07 nm  f=0.0050  <S**2>=0.000
       9 -> 18        -0.19087
      10 -> 20         0.66793

 Excited State  44:      Singlet-A"    12.4048 eV   99.95 nm  f=0.0094  <S**2>=0.000
       9 -> 17         0.69856

 Excited State  45:      Singlet-A'    12.4295 eV   99.75 nm  f=0.0185  <S**2>=0.000
       7 -> 15        -0.22439
       7 -> 16         0.23229
       9 -> 18        -0.12385
      11 -> 23         0.59863

 Excited State  46:      Singlet-A"    12.5249 eV   98.99 nm  f=0.0013  <S**2>=0.000
      10 -> 21        -0.46254
      12 -> 28         0.51121

 Excited State  47:      Singlet-A"    12.5645 eV   98.68 nm  f=0.0027  <S**2>=0.000
       9 -> 19         0.18307
      10 -> 21         0.49157
      12 -> 28         0.45289

 Excited State  48:      Singlet-A'    12.5993 eV   98.41 nm  f=0.0378  <S**2>=0.000
       7 -> 15         0.44457
       7 -> 16         0.48283
       8 -> 17         0.17984
      10 -> 22         0.16244

 Excited State  49:      Singlet-A'    12.6599 eV   97.93 nm  f=0.1678  <S**2>=0.000
       7 -> 15         0.21842
       7 -> 16        -0.36672
       8 -> 17         0.45564
       9 -> 18        -0.24178
      11 -> 23         0.11711

 Excited State  50:      Singlet-A"    12.6625 eV   97.91 nm  f=0.0008  <S**2>=0.000
      11 -> 24         0.69395
      12 -> 28        -0.11011

 Excited State  51:      Singlet-A"    12.7213 eV   97.46 nm  f=0.0000  <S**2>=0.000
       8 -> 18         0.69462

 Excited State  52:      Singlet-A'    12.7618 eV   97.15 nm  f=0.1449  <S**2>=0.000
       7 -> 15        -0.31244
       9 -> 18        -0.12579
      10 -> 22         0.56721
      11 -> 23        -0.15379

 Excited State  53:      Singlet-A'    12.8062 eV   96.82 nm  f=0.0125  <S**2>=0.000
       7 -> 15        -0.28595
       7 -> 16         0.14920
       8 -> 17         0.44691
       9 -> 18         0.18179
      10 -> 22        -0.24470
      11 -> 23        -0.15490
      12 -> 29         0.15095

 Excited State  54:      Singlet-A'    13.0120 eV   95.28 nm  f=0.0491  <S**2>=0.000
       8 -> 19         0.48965
       9 -> 18         0.29138
      10 -> 22         0.10863
      10 -> 23        -0.33395

 Excited State  55:      Singlet-A"    13.0145 eV   95.27 nm  f=0.0482  <S**2>=0.000
       6 -> 13         0.22447
       9 -> 19         0.62511
      10 -> 21        -0.14539

 Excited State  56:      Singlet-A'    13.1014 eV   94.63 nm  f=0.0636  <S**2>=0.000
       8 -> 19         0.11148
       9 -> 18         0.25244
      10 -> 23         0.54783
      11 -> 25         0.23037
      12 -> 29         0.18634

 Excited State  57:      Singlet-A'    13.1673 eV   94.16 nm  f=0.0130  <S**2>=0.000
       7 -> 16         0.10340
       7 -> 17        -0.14924
       8 -> 19         0.43289
       8 -> 20         0.23042
       9 -> 18        -0.24513
      10 -> 22        -0.18915
      10 -> 23         0.17875
      12 -> 29        -0.22687

 Excited State  58:      Singlet-A'    13.2906 eV   93.29 nm  f=0.0463  <S**2>=0.000
       8 -> 19        -0.12204
      10 -> 23        -0.12645
      11 -> 25         0.63702
      11 -> 27         0.11027
      12 -> 29        -0.12344

 Excited State  59:      Singlet-A"    13.3036 eV   93.20 nm  f=0.0000  <S**2>=0.000
       6 -> 13         0.34743
       9 -> 20         0.48875
      10 -> 24         0.34760

 Excited State  60:      Singlet-A"    13.3555 eV   92.83 nm  f=0.0004  <S**2>=0.000
       9 -> 20        -0.45673
      10 -> 24         0.52499

 Excited State  61:      Singlet-A'    13.3988 eV   92.53 nm  f=0.0336  <S**2>=0.000
       8 -> 20         0.11038
       9 -> 18        -0.21429
      10 -> 23        -0.10057
      10 -> 25        -0.10261
      12 -> 29         0.55911

 Excited State  62:      Singlet-A"    13.5265 eV   91.66 nm  f=0.0234  <S**2>=0.000
      10 -> 24        -0.16144
      12 -> 30         0.65996

 Excited State  63:      Singlet-A"    13.6159 eV   91.06 nm  f=0.0919  <S**2>=0.000
       6 -> 13         0.44468
       7 -> 18         0.31079
       9 -> 19        -0.14083
       9 -> 20        -0.17037
      10 -> 24        -0.25209
      12 -> 30        -0.21521

 Excited State  64:      Singlet-A'    13.6275 eV   90.98 nm  f=0.0017  <S**2>=0.000
       7 -> 17         0.33480
       8 -> 20         0.56377
      10 -> 25         0.16265

 Excited State  65:      Singlet-A'    13.7753 eV   90.00 nm  f=0.0136  <S**2>=0.000
       7 -> 17        -0.31397
       9 -> 21         0.51137
      12 -> 31        -0.31202

 Excited State  66:      Singlet-A"    13.7996 eV   89.85 nm  f=0.0001  <S**2>=0.000
       8 -> 21         0.63433
       9 -> 22        -0.30714

 Excited State  67:      Singlet-A'    13.8612 eV   89.45 nm  f=0.0129  <S**2>=0.000
       6 -> 14         0.15613
       9 -> 21         0.26156
      10 -> 25         0.10810
      12 -> 31         0.59166

 Excited State  68:      Singlet-A"    13.8665 eV   89.41 nm  f=0.0001  <S**2>=0.000
       7 -> 18         0.16319
       8 -> 21         0.28967
       9 -> 22         0.59016
      11 -> 26         0.15894

 Excited State  69:      Singlet-A'    13.8736 eV   89.37 nm  f=0.0030  <S**2>=0.000
       6 -> 14         0.47372
       7 -> 17         0.32250
       8 -> 22         0.16251
       9 -> 21         0.19255
      10 -> 25        -0.26162
      11 -> 27        -0.10484

 Excited State  70:      Singlet-A'    13.9750 eV   88.72 nm  f=0.0092  <S**2>=0.000
       6 -> 14         0.33606
       8 -> 22        -0.22796
      10 -> 25         0.50637
      11 -> 27        -0.11570
      12 -> 31        -0.10627

 Excited State  71:      Singlet-A"    13.9753 eV   88.72 nm  f=0.0848  <S**2>=0.000
       6 -> 13        -0.13138
       7 -> 18         0.52764
       9 -> 19         0.10043
       9 -> 22        -0.17764
       9 -> 23         0.21855
      11 -> 26         0.27001

 Excited State  72:      Singlet-A"    14.0091 eV   88.50 nm  f=0.0866  <S**2>=0.000
       6 -> 13         0.16724
       7 -> 18        -0.22565
       9 -> 23        -0.10151
      11 -> 26         0.61865

 Excited State  73:      Singlet-A'    14.1021 eV   87.92 nm  f=0.0048  <S**2>=0.000
       6 -> 14        -0.15562
       7 -> 17         0.16166
       7 -> 19        -0.28564
       8 -> 20        -0.12700
       8 -> 22         0.41546
       9 -> 21         0.10956
      10 -> 25         0.25915
      11 -> 27         0.20769
      11 -> 28         0.11097

 Excited State  74:      Singlet-A'    14.1799 eV   87.44 nm  f=0.1057  <S**2>=0.000
       6 -> 14         0.25897
       6 -> 16         0.17258
       7 -> 17        -0.27026
       8 -> 20         0.13898
       8 -> 22         0.32595
       9 -> 21        -0.24381
      11 -> 27         0.26824

 Excited State  75:      Singlet-A"    14.2023 eV   87.30 nm  f=0.0552  <S**2>=0.000
       7 -> 18        -0.12501
       9 -> 23         0.59538
      12 -> 32         0.31762

 Excited State  76:      Singlet-A"    14.3081 eV   86.65 nm  f=0.0403  <S**2>=0.000
       7 -> 18         0.10913
       9 -> 23        -0.27097
      12 -> 32         0.62255

 Excited State  77:      Singlet-A'    14.3897 eV   86.16 nm  f=0.0208  <S**2>=0.000
       7 -> 19         0.21690
       8 -> 23         0.60803
       9 -> 24         0.14337
      11 -> 28         0.15680

 Excited State  78:      Singlet-A'    14.4128 eV   86.02 nm  f=0.0152  <S**2>=0.000
       6 -> 16        -0.25047
       7 -> 17         0.11567
       7 -> 19         0.44065
       8 -> 23        -0.24976
      10 -> 25         0.11865
      10 -> 27        -0.11705
      11 -> 27         0.30188

 Excited State  79:      Singlet-A'    14.5380 eV   85.28 nm  f=0.0873  <S**2>=0.000
       7 -> 20        -0.14673
       8 -> 22         0.16895
       9 -> 24         0.55282
      11 -> 27        -0.27733

 Excited State  80:      Singlet-A'    14.5916 eV   84.97 nm  f=0.2457  <S**2>=0.000
       6 -> 16         0.19445
       7 -> 19        -0.23494
       8 -> 22        -0.22650
       9 -> 24         0.35016
      10 -> 27        -0.16232
      10 -> 28         0.15715
      11 -> 27         0.27427
      11 -> 28         0.25431

 Excited State  81:      Singlet-A"    14.6354 eV   84.72 nm  f=0.0095  <S**2>=0.000
      10 -> 26         0.69238

 Excited State  82:      Singlet-A'    14.6451 eV   84.66 nm  f=0.0963  <S**2>=0.000
       6 -> 15         0.57023
       7 -> 20         0.21962
      11 -> 28        -0.25740

 Excited State  83:      Singlet-A"    14.6514 eV   84.62 nm  f=0.0135  <S**2>=0.000
      12 -> 33         0.69473

 Excited State  84:      Singlet-A"    14.6979 eV   84.35 nm  f=0.0160  <S**2>=0.000
       8 -> 24         0.69075

 Excited State  85:      Singlet-A'    14.7375 eV   84.13 nm  f=0.1396  <S**2>=0.000
       6 -> 16        -0.18301
       7 -> 20         0.57916
       8 -> 23        -0.12142
      11 -> 28         0.23714

 Excited State  86:      Singlet-A"    14.8659 eV   83.40 nm  f=0.0049  <S**2>=0.000
      11 -> 29         0.33508
      12 -> 34         0.61823

 Excited State  87:      Singlet-A'    14.8785 eV   83.33 nm  f=0.0729  <S**2>=0.000
       6 -> 15        -0.14607
       7 -> 20         0.11600
       9 -> 24         0.10910
      10 -> 27         0.50353
      11 -> 27         0.19997
      11 -> 28        -0.24171
      12 -> 35         0.19650

 Excited State  88:      Singlet-A"    14.9135 eV   83.14 nm  f=0.0187  <S**2>=0.000
      11 -> 29         0.61912
      12 -> 34        -0.33194

 Excited State  89:      Singlet-A'    14.9796 eV   82.77 nm  f=0.0135  <S**2>=0.000
       6 -> 15        -0.22688
       6 -> 16         0.32039
       7 -> 20         0.18596
       7 -> 22        -0.13385
       8 -> 25         0.19990
      10 -> 27        -0.26376
      10 -> 28        -0.19190
      11 -> 28        -0.24449

 Excited State  90:      Singlet-A"    14.9967 eV   82.67 nm  f=0.0028  <S**2>=0.000
       7 -> 21         0.57719
       9 -> 25         0.38657

 Excited State  91:      Singlet-A'    15.0348 eV   82.46 nm  f=0.0561  <S**2>=0.000
       6 -> 15         0.15846
       6 -> 16         0.35838
       7 -> 19         0.17231
       8 -> 20        -0.10161
       8 -> 25         0.15881
      10 -> 27         0.28642
      11 -> 28         0.23385
      12 -> 35        -0.12543

 Excited State  92:      Singlet-A'    15.1255 eV   81.97 nm  f=0.0228  <S**2>=0.000
       6 -> 16         0.10375
       8 -> 25         0.14884
      10 -> 27        -0.12901
      12 -> 35         0.63700

 Excited State  93:      Singlet-A"    15.1779 eV   81.69 nm  f=0.0492  <S**2>=0.000
       7 -> 21        -0.30250
       9 -> 25         0.39343
      12 -> 36         0.47041

 Excited State  94:      Singlet-A'    15.2294 eV   81.41 nm  f=0.0159  <S**2>=0.000
       7 -> 22         0.52831
       8 -> 25         0.24500
      10 -> 28        -0.34941

 Excited State  95:      Singlet-A"    15.2939 eV   81.07 nm  f=0.0623  <S**2>=0.000
       7 -> 21         0.18859
       9 -> 25        -0.37299
      10 -> 29         0.12585
      12 -> 36         0.51217

 Excited State  96:      Singlet-A'    15.3201 eV   80.93 nm  f=0.0185  <S**2>=0.000
       6 -> 16        -0.16016
       7 -> 22        -0.22893
       7 -> 23        -0.10967
       8 -> 25         0.56486
      10 -> 28         0.10271
      11 -> 30        -0.11483

 Excited State  97:      Singlet-A'    15.5215 eV   79.88 nm  f=0.0086  <S**2>=0.000
       7 -> 22         0.10672
       7 -> 23        -0.16701
      10 -> 28         0.21310
      11 -> 28        -0.13436
      11 -> 30         0.57809
      11 -> 32         0.10063

 Excited State  98:      Singlet-A'    15.5458 eV   79.75 nm  f=0.0676  <S**2>=0.000
       7 -> 22        -0.26254
       7 -> 23         0.39149
      10 -> 28        -0.26921
      11 -> 30         0.33888

 Excited State  99:      Singlet-A"    15.6277 eV   79.34 nm  f=0.0081  <S**2>=0.000
      10 -> 29         0.68610

 Excited State 100:      Singlet-A'    15.7198 eV   78.87 nm  f=0.1333  <S**2>=0.000
       7 -> 22         0.15212
       7 -> 23         0.43052
       9 -> 26        -0.39627
      10 -> 28         0.25583

 Excited State 101:      Singlet-A"    15.8053 eV   78.44 nm  f=0.0526  <S**2>=0.000
       6 -> 18         0.18629
       7 -> 24         0.15253
       8 -> 26         0.10878
      11 -> 31         0.64597

 Excited State 102:      Singlet-A'    15.8407 eV   78.27 nm  f=0.1051  <S**2>=0.000
       6 -> 17         0.61576
       9 -> 26        -0.23796
      10 -> 28        -0.11362
      12 -> 39        -0.13012

 Excited State 103:      Singlet-A"    15.8605 eV   78.17 nm  f=0.0175  <S**2>=0.000
       6 -> 18        -0.16578
       7 -> 24         0.65104
       8 -> 26        -0.10831
      12 -> 37         0.13223

 Excited State 104:      Singlet-A'    15.8807 eV   78.07 nm  f=0.1601  <S**2>=0.000
       6 -> 17         0.23307
       7 -> 23         0.23448
       8 -> 27         0.12689
       9 -> 26         0.50933
      10 -> 28         0.18720
      12 -> 39        -0.12818

 Excited State 105:      Singlet-A"    15.9139 eV   77.91 nm  f=0.0000  <S**2>=0.000
       6 -> 18         0.52492
       8 -> 26        -0.35409
       9 -> 27         0.23824
      11 -> 31        -0.12398
      12 -> 38         0.14157

 Excited State 106:      Singlet-A"    15.9227 eV   77.87 nm  f=0.0005  <S**2>=0.000
       6 -> 18        -0.30807
       9 -> 27         0.44209
      12 -> 37        -0.17414
      12 -> 38         0.41812

 Excited State 107:      Singlet-A"    15.9581 eV   77.69 nm  f=0.0137  <S**2>=0.000
       8 -> 26         0.21218
       9 -> 27        -0.19900
      12 -> 37         0.41642
      12 -> 38         0.46634

 Excited State 108:      Singlet-A"    16.0075 eV   77.45 nm  f=0.0043  <S**2>=0.000
       7 -> 24        -0.15111
       9 -> 27         0.35535
      12 -> 37         0.50541
      12 -> 38        -0.24312

 Excited State 109:      Singlet-A'    16.0171 eV   77.41 nm  f=0.0005  <S**2>=0.000
       6 -> 17         0.13104
      11 -> 32         0.11169
      12 -> 39         0.64863

 Excited State 110:      Singlet-A"    16.1073 eV   76.97 nm  f=0.2156  <S**2>=0.000
       5 -> 13         0.11708
       6 -> 18         0.20988
       7 -> 24         0.10303
       8 -> 26         0.51362
       9 -> 27         0.24135
      10 -> 31        -0.10316
      11 -> 31        -0.17075
      12 -> 37        -0.10668

 Excited State 111:      Singlet-A'    16.1143 eV   76.94 nm  f=0.0114  <S**2>=0.000
       8 -> 27        -0.15170
      12 -> 40         0.66933

 Excited State 112:      Singlet-A'    16.2256 eV   76.41 nm  f=0.0010  <S**2>=0.000
       6 -> 19         0.47141
       8 -> 27         0.40464
       8 -> 28         0.10018
      10 -> 30        -0.23882
      11 -> 32        -0.13497

 Excited State 113:      Singlet-A'    16.2796 eV   76.16 nm  f=0.0780  <S**2>=0.000
       7 -> 25         0.16043
      10 -> 30         0.49337
      11 -> 32        -0.42918
      11 -> 33         0.12134

 Excited State 114:      Singlet-A'    16.3414 eV   75.87 nm  f=0.0106  <S**2>=0.000

 The electronic state is 1-A'.
 Alpha  occ. eigenvalues --   -9.89984  -9.89374  -9.88481  -0.70944  -0.61433
 Alpha  occ. eigenvalues --   -0.49319  -0.41895  -0.37629  -0.36985  -0.32791
 Alpha  occ. eigenvalues --   -0.30299  -0.23069
 Alpha virt. eigenvalues --   -0.02234   0.01421   0.04199   0.04273   0.08431
 Alpha virt. eigenvalues --    0.09017   0.10261   0.12079   0.13130   0.13803
 Alpha virt. eigenvalues --    0.15009   0.16351   0.18248   0.21068   0.21605

 Mulliken charges:
               1
     1  C    0.619385
     2  C   -0.401881
     3  C    0.040968
     4  H    0.006565
     5  H    0.021383
     6  H    0.006565
     7  H   -0.207181
     8  H   -0.055506
     9  H   -0.030296
 Sum of Mulliken charges =  -0.00000

 Dipole moment (field-independent basis, Debye):
    X=             -0.4206    Y=             -0.0484    Z=              0.0000  Tot=              0.4234
 Quadrupole moment (field-independent basis, Debye-Ang):
   XX=            -19.4887   YY=            -19.3717   ZZ=            -21.7501
   XY=             -0.1868   XZ=             -0.0000   YZ=             -0.0000

 Normal termination of Gaussian 16 at Mon Mar 21 20:24:27 2022.
