 Gaussian 16, Revision C.01,
 Gaussian 16:  EM64L-G16RevC.01  3-Jul-2019

 ----------------------------------------------------------------------
 #P TD(Nstates=10000) pbepbe/Gen SCF(maxcycles=100) Int(Grid=ultrafine)
 ----------------------------------------------------------------------

 ---------------------
 xGDB7_00001_tier4.com
 ---------------------
 Symbolic Z-matrix:
 Charge =  0 Multiplicity = 1

                         Standard orientation:
 ---------------------------------------------------------------------
 Center     Atomic      Atomic             Coordinates (Angstroms)
 Number     Number       Type             X           Y           Z
 ---------------------------------------------------------------------
      1          7           0        1.078471   -0.156900   -0.000001
      2          6           0       -0.161963    0.384944   -0.000002
      3          8           0       -1.189170   -0.245458    0.000001
      4          1           0        1.898427    0.419427    0.000004
      5          1           0        1.178124   -1.157073    0.000005
      6          1           0       -0.140706    1.489948    0.000007
 ---------------------------------------------------------------------

 SCF Done:  E(RPBE-PBE) =  -169.596459082     A.U. after   14 cycles

 Excitation energies and oscillator strengths:

 Excited State   1:      Singlet-A      5.4899 eV  225.84 nm  f=0.0006  <S**2>=0.000
      12 -> 13         0.70665
 This state for optimization and/or second-order correction.
 Total Energy, E(TD-HF/TD-DFT) =  -169.394710330
 Copying the excited state density for this state as the 1-particle RhoCI density.

 Excited State   2:      Singlet-A      6.0601 eV  204.59 nm  f=0.0214  <S**2>=0.000
      11 -> 13         0.17360
      12 -> 14         0.68405

 Excited State   3:      Singlet-A      6.8044 eV  182.21 nm  f=0.0793  <S**2>=0.000
      12 -> 15         0.70302

 Excited State   4:      Singlet-A      6.8203 eV  181.79 nm  f=0.0103  <S**2>=0.000
      11 -> 14         0.70522

 Excited State   5:      Singlet-A      7.5807 eV  163.55 nm  f=0.0032  <S**2>=0.000
      11 -> 15         0.70564

 Excited State   6:      Singlet-A      7.6766 eV  161.51 nm  f=0.3026  <S**2>=0.000
      11 -> 13         0.64896
      11 -> 18        -0.10441
      12 -> 14        -0.15898

 Excited State   7:      Singlet-A      7.8068 eV  158.82 nm  f=0.0341  <S**2>=0.000
      12 -> 16         0.70161

 Excited State   8:      Singlet-A      8.5962 eV  144.23 nm  f=0.0053  <S**2>=0.000
      11 -> 16         0.70185

 Excited State   9:      Singlet-A      8.6445 eV  143.43 nm  f=0.0339  <S**2>=0.000
      12 -> 17         0.69110

 Excited State  10:      Singlet-A      8.6762 eV  142.90 nm  f=0.0106  <S**2>=0.000
      12 -> 18         0.70185

 Excited State  11:      Singlet-A      9.0664 eV  136.75 nm  f=0.0076  <S**2>=0.000
      12 -> 19         0.69289

 Excited State  12:      Singlet-A      9.3092 eV  133.18 nm  f=0.0018  <S**2>=0.000
      11 -> 17         0.70228

 Excited State  13:      Singlet-A      9.5215 eV  130.21 nm  f=0.0066  <S**2>=0.000
      11 -> 18         0.23826
      12 -> 20         0.66342

 Excited State  14:      Singlet-A      9.6338 eV  128.70 nm  f=0.0142  <S**2>=0.000
      11 -> 18         0.64573
      12 -> 20        -0.24288

 Excited State  15:      Singlet-A      9.7104 eV  127.68 nm  f=0.0031  <S**2>=0.000
      10 -> 13         0.66953
      11 -> 19        -0.18452

 Excited State  16:      Singlet-A      9.8320 eV  126.10 nm  f=0.0007  <S**2>=0.000
      10 -> 13         0.17621
      11 -> 19         0.68196

 Excited State  17:      Singlet-A     10.0148 eV  123.80 nm  f=0.0130  <S**2>=0.000
      10 -> 14         0.70337

 Excited State  18:      Singlet-A     10.1365 eV  122.31 nm  f=0.0395  <S**2>=0.000
       9 -> 14         0.69576
      12 -> 21        -0.12092

 Excited State  19:      Singlet-A     10.2163 eV  121.36 nm  f=0.0001  <S**2>=0.000
       9 -> 14         0.11680
      11 -> 20        -0.12362
      12 -> 21         0.68386

 Excited State  20:      Singlet-A     10.3871 eV  119.36 nm  f=0.0199  <S**2>=0.000
      11 -> 20         0.68897
      12 -> 21         0.11269

 Excited State  21:      Singlet-A     10.4787 eV  118.32 nm  f=0.0100  <S**2>=0.000
      12 -> 22         0.69719

 Excited State  22:      Singlet-A     10.6671 eV  116.23 nm  f=0.0351  <S**2>=0.000
       9 -> 13        -0.29123
      10 -> 15        -0.23195
      12 -> 23         0.58560

 Excited State  23:      Singlet-A     10.8379 eV  114.40 nm  f=0.0758  <S**2>=0.000
      10 -> 15         0.61800
      11 -> 21         0.16767
      12 -> 23         0.27947

 Excited State  24:      Singlet-A     10.8824 eV  113.93 nm  f=0.0207  <S**2>=0.000
       8 -> 14         0.10393
       9 -> 13         0.45205
      10 -> 15        -0.24237
      11 -> 21         0.43077
      12 -> 23         0.15507

 Excited State  25:      Singlet-A     10.9181 eV  113.56 nm  f=0.0008  <S**2>=0.000
       9 -> 15         0.69079
      12 -> 24        -0.11875

 Excited State  26:      Singlet-A     11.0308 eV  112.40 nm  f=0.0049  <S**2>=0.000
       9 -> 15         0.11700
      12 -> 24         0.69545

 Excited State  27:      Singlet-A     11.3025 eV  109.70 nm  f=0.0059  <S**2>=0.000
      11 -> 22         0.70451

 Excited State  28:      Singlet-A     11.3555 eV  109.18 nm  f=0.0890  <S**2>=0.000
       8 -> 14        -0.18022
       9 -> 13        -0.34452
      10 -> 16        -0.17032
      11 -> 21         0.50251
      12 -> 23        -0.17967
      12 -> 27         0.10922

 Excited State  29:      Singlet-A     11.4786 eV  108.01 nm  f=0.0017  <S**2>=0.000
      11 -> 23         0.70121

 Excited State  30:      Singlet-A     11.5214 eV  107.61 nm  f=0.0030  <S**2>=0.000
       8 -> 13         0.68805

 Excited State  31:      Singlet-A     11.9377 eV  103.86 nm  f=0.0017  <S**2>=0.000
       8 -> 14        -0.19888
      10 -> 16         0.62635
      11 -> 24        -0.20184

 Excited State  32:      Singlet-A     11.9593 eV  103.67 nm  f=0.0429  <S**2>=0.000
       9 -> 16         0.70273

 Excited State  33:      Singlet-A     12.0039 eV  103.29 nm  f=0.0283  <S**2>=0.000
       8 -> 14         0.61000
       9 -> 13        -0.17715
      10 -> 16         0.19955
      11 -> 24         0.13531
      12 -> 27         0.11203

 Excited State  34:      Singlet-A     12.1458 eV  102.08 nm  f=0.0216  <S**2>=0.000
       8 -> 14        -0.18023
       9 -> 18         0.13450
      10 -> 16         0.14589
      11 -> 24         0.62190

 Excited State  35:      Singlet-A     12.5587 eV   98.72 nm  f=0.0053  <S**2>=0.000
       8 -> 15        -0.12660
      12 -> 25         0.67214

 Excited State  36:      Singlet-A     12.5814 eV   98.55 nm  f=0.1153  <S**2>=0.000
      10 -> 17         0.69121
      12 -> 25        -0.11300

 Excited State  37:      Singlet-A     12.6832 eV   97.75 nm  f=0.0026  <S**2>=0.000
       9 -> 17         0.36631
      10 -> 18         0.51343
      12 -> 26         0.31818

 Excited State  38:      Singlet-A     12.7284 eV   97.41 nm  f=0.0009  <S**2>=0.000
      10 -> 18        -0.39633
      12 -> 26         0.58297

 Excited State  39:      Singlet-A     12.7902 eV   96.94 nm  f=0.0539  <S**2>=0.000
       9 -> 17         0.58897
      10 -> 18        -0.27848
      12 -> 26        -0.23859

 Excited State  40:      Singlet-A     12.8114 eV   96.78 nm  f=0.1598  <S**2>=0.000
       8 -> 15         0.67507
      12 -> 25         0.13455

 Excited State  41:      Singlet-A     13.0352 eV   95.12 nm  f=0.0099  <S**2>=0.000
       9 -> 18         0.61912
      10 -> 19        -0.24275
      10 -> 20        -0.11888

 Excited State  42:      Singlet-A     13.0673 eV   94.88 nm  f=0.0444  <S**2>=0.000
       9 -> 18         0.22832
      10 -> 19         0.65753

 Excited State  43:      Singlet-A     13.1788 eV   94.08 nm  f=0.0001  <S**2>=0.000
       9 -> 19         0.70430

 Excited State  44:      Singlet-A     13.3817 eV   92.65 nm  f=0.0399  <S**2>=0.000
       7 -> 13        -0.43613
       9 -> 20         0.13829
      11 -> 25         0.52693

 Excited State  45:      Singlet-A     13.4037 eV   92.50 nm  f=0.1990  <S**2>=0.000
       8 -> 16         0.21427
      10 -> 20        -0.21991
      11 -> 26         0.19638
      12 -> 27         0.56322

 Excited State  46:      Singlet-A     13.4393 eV   92.25 nm  f=0.0107  <S**2>=0.000
       7 -> 13         0.54784
       9 -> 20         0.15063
      11 -> 25         0.40620

 Excited State  47:      Singlet-A     13.5941 eV   91.20 nm  f=0.0314  <S**2>=0.000
       8 -> 16        -0.13800
      10 -> 20         0.37553
      11 -> 26         0.57172

 Excited State  48:      Singlet-A     13.6666 eV   90.72 nm  f=0.0248  <S**2>=0.000
       8 -> 16         0.40966
       9 -> 18         0.10407
      10 -> 20         0.48372
      11 -> 26        -0.23697

 Excited State  49:      Singlet-A     13.7686 eV   90.05 nm  f=0.0932  <S**2>=0.000
       6 -> 13        -0.11752
       9 -> 20         0.62621
      11 -> 25        -0.14018
      11 -> 27         0.25943

 Excited State  50:      Singlet-A     13.8324 eV   89.63 nm  f=0.0269  <S**2>=0.000
       8 -> 16         0.48538
      10 -> 20        -0.21256
      11 -> 26         0.23673
      12 -> 27        -0.25806
      12 -> 28         0.18850

 Excited State  51:      Singlet-A     13.9172 eV   89.09 nm  f=0.0468  <S**2>=0.000
       9 -> 20        -0.21289
      11 -> 25         0.14122
      11 -> 27         0.64715

 Excited State  52:      Singlet-A     14.1953 eV   87.34 nm  f=0.0726  <S**2>=0.000
       7 -> 14         0.62556
       8 -> 17         0.12303
       9 -> 21        -0.22972

 Excited State  53:      Singlet-A     14.2533 eV   86.99 nm  f=0.0124  <S**2>=0.000
      10 -> 21         0.70480

 Excited State  54:      Singlet-A     14.3206 eV   86.58 nm  f=0.0497  <S**2>=0.000
       7 -> 14         0.13077
       9 -> 21         0.30294
      10 -> 22         0.19362
      12 -> 28         0.57777

 Excited State  55:      Singlet-A     14.5046 eV   85.48 nm  f=0.0420  <S**2>=0.000
       8 -> 17         0.27345
       9 -> 21         0.49394
      10 -> 22        -0.15144
      12 -> 28        -0.20872
      12 -> 29         0.27976

 Excited State  56:      Singlet-A     14.5350 eV   85.30 nm  f=0.0084  <S**2>=0.000
       7 -> 14        -0.15281
       7 -> 15        -0.17252
       8 -> 17         0.55173
       8 -> 19         0.13779
       9 -> 21        -0.15605
      10 -> 22         0.26866

 Excited State  57:      Singlet-A     14.5617 eV   85.14 nm  f=0.0086  <S**2>=0.000
       8 -> 18         0.70475

 Excited State  58:      Singlet-A     14.6028 eV   84.90 nm  f=0.0156  <S**2>=0.000
       8 -> 17        -0.22213
      10 -> 22         0.51382
      12 -> 28        -0.12013
      12 -> 29         0.36418

 Excited State  59:      Singlet-A     14.6531 eV   84.61 nm  f=0.0027  <S**2>=0.000
      10 -> 22        -0.14779
      10 -> 23         0.56873
      12 -> 29         0.33969

 Excited State  60:      Singlet-A     14.6545 eV   84.60 nm  f=0.0023  <S**2>=0.000
       9 -> 22         0.70490

 Excited State  61:      Singlet-A     14.7664 eV   83.96 nm  f=0.0048  <S**2>=0.000
       7 -> 15         0.33943
       8 -> 19         0.22123
       9 -> 21         0.15860
      10 -> 22         0.17113
      10 -> 23         0.36911
      12 -> 28        -0.13364
      12 -> 29        -0.30989

 Excited State  62:      Singlet-A     14.8153 eV   83.69 nm  f=0.0000  <S**2>=0.000
       9 -> 23         0.69421
      11 -> 28        -0.10148

 Excited State  63:      Singlet-A     14.8775 eV   83.34 nm  f=0.0146  <S**2>=0.000
       7 -> 15         0.46613
       8 -> 19         0.25785
       9 -> 21        -0.15216
      10 -> 22        -0.10168
      10 -> 23        -0.12655
      12 -> 28         0.10994
      12 -> 29         0.24770
      12 -> 30         0.21059
      12 -> 32        -0.12388

 Excited State  64:      Singlet-A     15.0101 eV   82.60 nm  f=0.0175  <S**2>=0.000
       8 -> 19        -0.26863
       8 -> 20         0.10129
       9 -> 24        -0.12410
      12 -> 30         0.60715

 Excited State  65:      Singlet-A     15.0579 eV   82.34 nm  f=0.0000  <S**2>=0.000
      10 -> 24         0.68557
      12 -> 31        -0.15226

 Excited State  66:      Singlet-A     15.1288 eV   81.95 nm  f=0.0040  <S**2>=0.000
       6 -> 15         0.11664
       7 -> 15        -0.31311
       7 -> 16         0.16142
       8 -> 17        -0.14161
       8 -> 19         0.47661
       8 -> 20         0.11591
      12 -> 30         0.20000
      12 -> 32        -0.15650

 Excited State  67:      Singlet-A     15.1342 eV   81.92 nm  f=0.0017  <S**2>=0.000
       6 -> 13        -0.14939
      10 -> 24         0.11290
      11 -> 28        -0.25898
      12 -> 31         0.62693

 Excited State  68:      Singlet-A     15.2166 eV   81.48 nm  f=0.0595  <S**2>=0.000
      11 -> 28         0.64143
      12 -> 31         0.24628

 Excited State  69:      Singlet-A     15.3268 eV   80.89 nm  f=0.0350  <S**2>=0.000
       8 -> 19         0.14753
       9 -> 24        -0.41838
      12 -> 32         0.49720

 Excited State  70:      Singlet-A     15.3510 eV   80.77 nm  f=0.0356  <S**2>=0.000
       6 -> 14         0.11551
       9 -> 24         0.51453
      12 -> 30         0.11131
      12 -> 32         0.41890

 Excited State  71:      Singlet-A     15.4801 eV   80.09 nm  f=0.0132  <S**2>=0.000
       6 -> 14        -0.13709
       8 -> 20         0.66301

 Excited State  72:      Singlet-A     15.4896 eV   80.04 nm  f=0.0019  <S**2>=0.000
      11 -> 29         0.70037

 Excited State  73:      Singlet-A     15.6707 eV   79.12 nm  f=0.0286  <S**2>=0.000
       6 -> 14         0.61914
       7 -> 16        -0.25706
      11 -> 31         0.15707

 Excited State  74:      Singlet-A     15.7251 eV   78.85 nm  f=0.1132  <S**2>=0.000
       6 -> 13         0.55838
      11 -> 30         0.32928
      12 -> 31         0.10538

 Excited State  75:      Singlet-A     15.7931 eV   78.51 nm  f=0.0709  <S**2>=0.000
       6 -> 13        -0.28812
      11 -> 30         0.62343

 Excited State  76:      Singlet-A     15.8557 eV   78.20 nm  f=0.0624  <S**2>=0.000
       7 -> 16         0.29904
      11 -> 31         0.29860
      12 -> 33         0.54856

 Excited State  77:      Singlet-A     16.0217 eV   77.39 nm  f=0.0583  <S**2>=0.000
       7 -> 16         0.12974
       8 -> 22         0.10967
      11 -> 31         0.55444
      12 -> 33        -0.37166

 Excited State  78:      Singlet-A     16.0806 eV   77.10 nm  f=0.0011  <S**2>=0.000
      11 -> 32         0.70459

 Excited State  79:      Singlet-A     16.0884 eV   77.06 nm  f=0.0012  <S**2>=0.000
       8 -> 21         0.70427

 Excited State  80:      Singlet-A     16.2039 eV   76.52 nm  f=0.0346  <S**2>=0.000
       6 -> 14         0.20397
       6 -> 15        -0.25953
       7 -> 16         0.44885
       7 -> 17         0.15902
       8 -> 22        -0.15287
       9 -> 24        -0.10691
      11 -> 31        -0.19692
      12 -> 33        -0.17404
      12 -> 34        -0.11054

 Excited State  81:      Singlet-A     16.4891 eV   75.19 nm  f=0.0751  <S**2>=0.000
       8 -> 22         0.60478
       8 -> 23        -0.25084
      12 -> 34        -0.15101

 Excited State  82:      Singlet-A     16.5346 eV   74.98 nm  f=0.0012  <S**2>=0.000
       6 -> 15        -0.29307
       7 -> 17        -0.34074
      10 -> 25         0.50616
      12 -> 34         0.13695

 Excited State  83:      Singlet-A     16.5692 eV   74.83 nm  f=0.0002  <S**2>=0.000
       6 -> 15         0.24638
       7 -> 17         0.39626
       8 -> 23        -0.30875
      10 -> 25         0.39574

 Excited State  84:      Singlet-A     16.6620 eV   74.41 nm  f=0.0000  <S**2>=0.000
       7 -> 18        -0.11401
      11 -> 33         0.69582

 Excited State  85:      Singlet-A     16.7170 eV   74.17 nm  f=0.0096  <S**2>=0.000
       7 -> 18         0.68771
      11 -> 33         0.10946

 Excited State  86:      Singlet-A     16.7320 eV   74.10 nm  f=0.0481  <S**2>=0.000
       6 -> 15         0.15782
       7 -> 17         0.12406
       8 -> 22         0.10416
       8 -> 23         0.47530
      10 -> 25         0.25043
      12 -> 34        -0.33455

 Excited State  87:      Singlet-A     16.7465 eV   74.04 nm  f=0.0029  <S**2>=0.000
       9 -> 25         0.64269
      10 -> 26        -0.25080

 Excited State  88:      Singlet-A     16.8179 eV   73.72 nm  f=0.0102  <S**2>=0.000
       8 -> 24         0.18196
       9 -> 25         0.24201
       9 -> 27        -0.10459
      10 -> 26         0.61589

 Excited State  89:      Singlet-A     16.8485 eV   73.59 nm  f=0.2931  <S**2>=0.000
       6 -> 15        -0.32184
       7 -> 16        -0.12470
       7 -> 17         0.37032
       7 -> 19        -0.10346
       8 -> 22         0.14884
       8 -> 23         0.22220
      12 -> 34         0.31813

 Excited State  90:      Singlet-A     16.9021 eV   73.35 nm  f=0.0168  <S**2>=0.000
       8 -> 24         0.67197
      10 -> 26        -0.18628

 Excited State  91:      Singlet-A     16.9569 eV   73.12 nm  f=0.0078  <S**2>=0.000
       7 -> 19        -0.28483
       9 -> 26         0.53838
      12 -> 34         0.26762

 Excited State  92:      Singlet-A     17.0423 eV   72.75 nm  f=0.0051  <S**2>=0.000
       6 -> 15         0.22544
       7 -> 16         0.11531
       7 -> 17        -0.15000
       9 -> 26        -0.30322
      10 -> 27         0.46669
      12 -> 34         0.23673

 Excited State  93:      Singlet-A     17.2082 eV   72.05 nm  f=0.0376  <S**2>=0.000
       6 -> 16        -0.10209
       7 -> 19         0.59964
       7 -> 20        -0.10066
       9 -> 26         0.23343
      10 -> 27         0.14326

 Excited State  94:      Singlet-A     17.2973 eV   71.68 nm  f=0.0545  <S**2>=0.000
       9 -> 27         0.67889

 Excited State  95:      Singlet-A     17.4076 eV   71.22 nm  f=0.0935  <S**2>=0.000
       6 -> 15        -0.18003
       6 -> 16         0.19880
       7 -> 20         0.26385
       8 -> 22        -0.11832
       8 -> 23        -0.11540
       9 -> 26         0.15998
      10 -> 27         0.42971
      12 -> 34        -0.20529

 Excited State  96:      Singlet-A     17.4202 eV   71.17 nm  f=0.0253  <S**2>=0.000
       6 -> 16         0.65650
      10 -> 27        -0.14101

 Excited State  97:      Singlet-A     17.6446 eV   70.27 nm  f=0.0129  <S**2>=0.000
      11 -> 34         0.69511

 Excited State  98:      Singlet-A     17.6624 eV   70.20 nm  f=0.0074  <S**2>=0.000
      12 -> 35         0.70144

 Excited State  99:      Singlet-A     17.6714 eV   70.16 nm  f=0.0433  <S**2>=0.000
       7 -> 20         0.62361
       7 -> 22        -0.11229
      10 -> 27        -0.12528

 Excited State 100:      Singlet-A     17.7490 eV   69.85 nm  f=0.0279  <S**2>=0.000
      12 -> 36         0.68412

 Excited State 101:      Singlet-A     18.2295 eV   68.01 nm  f=0.0494  <S**2>=0.000
       6 -> 17         0.63587
       7 -> 22        -0.10294
       8 -> 27        -0.14320
      10 -> 28        -0.17923

 Excited State 102:      Singlet-A     18.2759 eV   67.84 nm  f=0.0112  <S**2>=0.000
       6 -> 18         0.64401
       7 -> 21         0.28144

 Excited State 103:      Singlet-A     18.2944 eV   67.77 nm  f=0.0682  <S**2>=0.000
       6 -> 18        -0.27890
       7 -> 21         0.62759

 Excited State 104:      Singlet-A     18.3674 eV   67.50 nm  f=0.0021  <S**2>=0.000
       6 -> 17         0.12023
       7 -> 22        -0.10464
      10 -> 28         0.65330
      11 -> 35         0.14134
      12 -> 37        -0.11471

 Excited State 105:      Singlet-A     18.4857 eV   67.07 nm  f=0.0038  <S**2>=0.000
       7 -> 22         0.17029
       8 -> 25         0.19116
      11 -> 35         0.57646
      12 -> 37         0.29010

 Excited State 106:      Singlet-A     18.4911 eV   67.05 nm  f=0.0002  <S**2>=0.000
       9 -> 28         0.69475

 Excited State 107:      Singlet-A     18.5627 eV   66.79 nm  f=0.0065  <S**2>=0.000
       8 -> 26        -0.20611
      11 -> 36         0.67117

 Excited State 108:      Singlet-A     18.5901 eV   66.69 nm  f=0.0431  <S**2>=0.000
       6 -> 19        -0.19633
       8 -> 25         0.56541
      10 -> 29         0.18548
      10 -> 30         0.11897
      11 -> 35        -0.20272

 Excited State 109:      Singlet-A     18.6306 eV   66.55 nm  f=0.0520  <S**2>=0.000
       6 -> 19         0.58231
       7 -> 22        -0.25926
       7 -> 23        -0.20796
       8 -> 25         0.14150
      10 -> 29         0.11601

 Excited State 110:      Singlet-A     18.6620 eV   66.44 nm  f=0.0896  <S**2>=0.000
       8 -> 26         0.66544
      11 -> 36         0.19888

 Excited State 111:      Singlet-A     18.7522 eV   66.12 nm  f=0.0139  <S**2>=0.000
       7 -> 22         0.12513
       8 -> 25        -0.18517
      10 -> 29         0.63708
      10 -> 30        -0.10008

 Excited State 112:      Singlet-A     18.7701 eV   66.05 nm  f=0.0228  <S**2>=0.000
       7 -> 22        -0.30769
       7 -> 23         0.42594
      10 -> 30         0.21690
      12 -> 37         0.38174

 Excited State 113:      Singlet-A     18.8020 eV   65.94 nm  f=0.0667  <S**2>=0.000
       6 -> 19         0.32480
       7 -> 22         0.42069
       7 -> 23         0.37183
      10 -> 29        -0.11204

 Excited State 114:      Singlet-A     18.8451 eV   65.79 nm  f=0.0007  <S**2>=0.000
       9 -> 29         0.69614

 Excited State 115:      Singlet-A     18.9112 eV   65.56 nm  f=0.0802  <S**2>=0.000
       7 -> 22         0.19900
       7 -> 23        -0.31881
       8 -> 25        -0.17115
       8 -> 27        -0.11071
       9 -> 31         0.13011
      10 -> 30         0.37758
      11 -> 35        -0.14320
      12 -> 37         0.28513

 Excited State 116:      Singlet-A     19.0601 eV   65.05 nm  f=0.0172  <S**2>=0.000
       7 -> 24         0.68930

 Excited State 117:      Singlet-A     19.1334 eV   64.80 nm  f=0.0211  <S**2>=0.000
       6 -> 20         0.50472
       8 -> 27        -0.38782
       9 -> 31         0.21769

 Excited State 118:      Singlet-A     19.1696 eV   64.68 nm  f=0.0009  <S**2>=0.000
      10 -> 31         0.70394

 Excited State 119:      Singlet-A     19.2416 eV   64.44 nm  f=0.0481  <S**2>=0.000
       6 -> 20         0.42893
       8 -> 27         0.31503
       9 -> 31        -0.36511
      10 -> 32         0.18352

 Excited State 120:      Singlet-A     19.3128 eV   64.20 nm  f=0.0009  <S**2>=0.000
       9 -> 30         0.61220
       9 -> 32        -0.31113

 Excited State 121:      Singlet-A     19.3316 eV   64.14 nm  f=0.0400  <S**2>=0.000
       6 -> 20        -0.15427
       8 -> 27        -0.10945
      10 -> 30        -0.12983

 The electronic state is 1-A.
 Alpha  occ. eigenvalues --  -18.74220 -14.03546  -9.99685  -0.95203  -0.83494
 Alpha  occ. eigenvalues --   -0.57368  -0.51651  -0.43767  -0.37475  -0.36979
 Alpha  occ. eigenvalues --   -0.25184  -0.22231
 Alpha virt. eigenvalues --   -0.02802  -0.00390   0.02570   0.06338   0.08963
 Alpha virt. eigenvalues --    0.09753   0.10983   0.12825   0.15345   0.16376
 Alpha virt. eigenvalues --    0.16946   0.18347   0.23755   0.24761   0.25700

 Mulliken charges:
               1
     1  N    0.263581
     2  C    0.566350
     3  O   -0.362733
     4  H   -0.133910
     5  H   -0.096556
     6  H   -0.236731
 Sum of Mulliken charges =  -0.00000

 Dipole moment (field-independent basis, Debye):
    X=              3.8137    Y=              0.7560    Z=              0.0000  Tot=              3.8879
 Quadrupole moment (field-independent basis, Debye-Ang):
   XX=            -18.1866   YY=            -15.9129   ZZ=            -18.9764
   XY=             -1.3150   XZ=              0.0000   YZ=             -0.0000

 Normal termination of Gaussian 16 at Mon Mar 21 20:10:21 2022.
