 Gaussian 16, Revision C.01,
 Gaussian 16:  EM64L-G16RevC.01  3-Jul-2019

 ----------------------------------------------------------------------
 #P TD(Nstates=10000) pbepbe/Gen SCF(maxcycles=100) Int(Grid=ultrafine)
 ----------------------------------------------------------------------

 ---------------------
 xGDB7_00001_tier4.com
 ---------------------
 Symbolic Z-matrix:
 Charge =  0 Multiplicity = 1

                         Standard orientation:
 ---------------------------------------------------------------------
 Center     Atomic      Atomic             Coordinates (Angstroms)
 Number     Number       Type             X           Y           Z
 ---------------------------------------------------------------------
      1          6           0       -1.122844   -0.452320    0.000000
      2          6           0        0.000000    0.553997    0.000000
      3          9           0        1.225284   -0.098236    0.000000
      4          1           0       -2.083314    0.066805    0.000000
      5          1           0       -1.072796   -1.085651    0.886148
      6          1           0       -1.072796   -1.085651   -0.886148
      7          1           0       -0.030794    1.189278    0.888716
      8          1           0       -0.030794    1.189278   -0.888716
 ---------------------------------------------------------------------

 SCF Done:  E(RPBE-PBE) =  -178.728390773     A.U. after   12 cycles

 Excitation energies and oscillator strengths:

 Excited State   1:      Singlet-A"     7.9241 eV  156.46 nm  f=0.0014  <S**2>=0.000
      13 -> 14         0.70677
 This state for optimization and/or second-order correction.
 Total Energy, E(TD-HF/TD-DFT) =  -178.437183900
 Copying the excited state density for this state as the 1-particle RhoCI density.

 Excited State   2:      Singlet-A'     8.1839 eV  151.50 nm  f=0.0161  <S**2>=0.000
      12 -> 14         0.70477

 Excited State   3:      Singlet-A"     8.7380 eV  141.89 nm  f=0.0224  <S**2>=0.000
      13 -> 15         0.70399

 Excited State   4:      Singlet-A'     8.9490 eV  138.55 nm  f=0.0398  <S**2>=0.000
      12 -> 15         0.70068

 Excited State   5:      Singlet-A"     9.2987 eV  133.34 nm  f=0.0186  <S**2>=0.000
      13 -> 16         0.70060

 Excited State   6:      Singlet-A'     9.4658 eV  130.98 nm  f=0.0096  <S**2>=0.000
      12 -> 16         0.43203
      13 -> 17         0.55006

 Excited State   7:      Singlet-A'     9.5429 eV  129.92 nm  f=0.1041  <S**2>=0.000
      12 -> 16         0.54827
      13 -> 17        -0.43475

 Excited State   8:      Singlet-A"     9.6296 eV  128.75 nm  f=0.0243  <S**2>=0.000
      12 -> 17         0.70187

 Excited State   9:      Singlet-A"     9.7125 eV  127.65 nm  f=0.0166  <S**2>=0.000
      11 -> 14         0.70215

 Excited State  10:      Singlet-A'     9.8318 eV  126.11 nm  f=0.0518  <S**2>=0.000
      10 -> 14         0.70169

 Excited State  11:      Singlet-A"     9.9517 eV  124.59 nm  f=0.0011  <S**2>=0.000
      13 -> 18         0.70291

 Excited State  12:      Singlet-A'    10.1967 eV  121.59 nm  f=0.0331  <S**2>=0.000
      12 -> 18         0.69623

 Excited State  13:      Singlet-A"    10.5226 eV  117.83 nm  f=0.0408  <S**2>=0.000
      11 -> 15         0.68566
      13 -> 20        -0.15719

 Excited State  14:      Singlet-A"    10.6354 eV  116.58 nm  f=0.0372  <S**2>=0.000
      11 -> 15         0.15221
      13 -> 20         0.68424

 Excited State  15:      Singlet-A'    10.6468 eV  116.45 nm  f=0.0879  <S**2>=0.000
      10 -> 15         0.68564
      10 -> 16         0.10026

 Excited State  16:      Singlet-A'    10.6793 eV  116.10 nm  f=0.0032  <S**2>=0.000
      10 -> 16        -0.10572
      12 -> 20         0.10970
      13 -> 19         0.67316

 Excited State  17:      Singlet-A"    10.7248 eV  115.60 nm  f=0.0010  <S**2>=0.000
      12 -> 19         0.70488

 Excited State  18:      Singlet-A'    10.8020 eV  114.78 nm  f=0.0076  <S**2>=0.000
      12 -> 20         0.69529
      13 -> 19        -0.10803

 Excited State  19:      Singlet-A"    10.9965 eV  112.75 nm  f=0.0000  <S**2>=0.000
      11 -> 16         0.69239
      13 -> 21        -0.11965

 Excited State  20:      Singlet-A"    11.0754 eV  111.95 nm  f=0.0000  <S**2>=0.000
      11 -> 16         0.11867
      13 -> 21         0.69453

 Excited State  21:      Singlet-A'    11.1326 eV  111.37 nm  f=0.0488  <S**2>=0.000
       9 -> 14         0.43371
      10 -> 16         0.53682

 Excited State  22:      Singlet-A'    11.2230 eV  110.47 nm  f=0.0461  <S**2>=0.000
       9 -> 14        -0.29413
      10 -> 16         0.21155
      11 -> 17         0.55538
      12 -> 21         0.18112

 Excited State  23:      Singlet-A"    11.2452 eV  110.26 nm  f=0.0320  <S**2>=0.000
      10 -> 17         0.70207

 Excited State  24:      Singlet-A'    11.2577 eV  110.13 nm  f=0.0031  <S**2>=0.000
       9 -> 14         0.42819
      10 -> 16        -0.31390
      11 -> 17         0.39892
      12 -> 21        -0.10072
      13 -> 22         0.15887

 Excited State  25:      Singlet-A'    11.3635 eV  109.11 nm  f=0.0336  <S**2>=0.000
       9 -> 14         0.15776
      10 -> 16        -0.13816
      12 -> 21         0.65363
      13 -> 22        -0.10629

 Excited State  26:      Singlet-A'    11.4866 eV  107.94 nm  f=0.0041  <S**2>=0.000
      10 -> 16         0.10681
      12 -> 21         0.14447
      13 -> 22         0.66680

 Excited State  27:      Singlet-A"    11.6212 eV  106.69 nm  f=0.0011  <S**2>=0.000
      12 -> 22         0.70248

 Excited State  28:      Singlet-A"    11.7738 eV  105.31 nm  f=0.0135  <S**2>=0.000
      10 -> 19         0.10336
      11 -> 18         0.68805

 Excited State  29:      Singlet-A"    11.9085 eV  104.11 nm  f=0.0005  <S**2>=0.000
      13 -> 23         0.70477

 Excited State  30:      Singlet-A'    11.9723 eV  103.56 nm  f=0.0130  <S**2>=0.000
       9 -> 15         0.60501
       9 -> 16         0.11430
      10 -> 18         0.27424
      12 -> 23         0.16692

 Excited State  31:      Singlet-A'    12.0707 eV  102.71 nm  f=0.1179  <S**2>=0.000
       9 -> 15        -0.27201
      10 -> 18         0.35620
      12 -> 23         0.48846
      13 -> 24        -0.19196

 Excited State  32:      Singlet-A'    12.1588 eV  101.97 nm  f=0.0579  <S**2>=0.000
       9 -> 15        -0.11932
      10 -> 18         0.44897
      11 -> 19         0.22394
      12 -> 23        -0.40594
      13 -> 24         0.16861

 Excited State  33:      Singlet-A"    12.2969 eV  100.83 nm  f=0.0062  <S**2>=0.000
       8 -> 14         0.36080
      12 -> 24         0.47517
      13 -> 25        -0.37349

 Excited State  34:      Singlet-A"    12.3260 eV  100.59 nm  f=0.0005  <S**2>=0.000
      10 -> 19        -0.26396
      11 -> 20         0.64805

 Excited State  35:      Singlet-A'    12.3379 eV  100.49 nm  f=0.1065  <S**2>=0.000
       7 -> 14         0.12988
       9 -> 16        -0.18703
      10 -> 20         0.10614
      11 -> 19         0.20498
      12 -> 23         0.23027
      13 -> 24         0.55692

 Excited State  36:      Singlet-A"    12.3409 eV  100.47 nm  f=0.0580  <S**2>=0.000
       8 -> 14         0.56401
      12 -> 24        -0.41961

 Excited State  37:      Singlet-A'    12.4058 eV   99.94 nm  f=0.0418  <S**2>=0.000
       7 -> 14         0.18207
       9 -> 16         0.19543
      10 -> 20         0.43436
      11 -> 19         0.39507
      12 -> 25         0.15643
      13 -> 24        -0.21430

 Excited State  38:      Singlet-A"    12.4430 eV   99.64 nm  f=0.0006  <S**2>=0.000
      10 -> 19         0.49572
      11 -> 20         0.25094
      12 -> 24         0.19409
      13 -> 25         0.36032

 Excited State  39:      Singlet-A'    12.4724 eV   99.41 nm  f=0.0363  <S**2>=0.000
       7 -> 14         0.61438
       9 -> 16        -0.16140
      10 -> 18         0.12768
      10 -> 20        -0.12086
      10 -> 21        -0.10866
      11 -> 19        -0.10726

 Excited State  40:      Singlet-A'    12.5326 eV   98.93 nm  f=0.0267  <S**2>=0.000
       7 -> 14         0.12986
       9 -> 16         0.48102
      10 -> 20        -0.41924
      11 -> 19         0.19220

 Excited State  41:      Singlet-A"    12.5591 eV   98.72 nm  f=0.0778  <S**2>=0.000
       8 -> 14        -0.13832
       9 -> 17         0.41147
      10 -> 19         0.35070
      11 -> 21        -0.10749
      12 -> 24        -0.16048
      13 -> 25        -0.35042

 Excited State  42:      Singlet-A'    12.6698 eV   97.86 nm  f=0.0784  <S**2>=0.000
       7 -> 14        -0.14150
       9 -> 15         0.12491
       9 -> 16        -0.30664
      10 -> 20        -0.28702
      11 -> 19         0.28714
      12 -> 25         0.38238
      13 -> 24        -0.12412

 Excited State  43:      Singlet-A"    12.6974 eV   97.65 nm  f=0.0817  <S**2>=0.000
       8 -> 14         0.10333
       9 -> 17         0.55163
      10 -> 19        -0.15704
      11 -> 21         0.23289
      12 -> 24         0.14766
      13 -> 25         0.25398

 Excited State  44:      Singlet-A'    12.8688 eV   96.34 nm  f=0.0124  <S**2>=0.000
       9 -> 16         0.16390
      10 -> 21         0.24101
      10 -> 23        -0.11188
      11 -> 19        -0.26263
      12 -> 25         0.50323
      13 -> 24         0.11895

 Excited State  45:      Singlet-A"    12.9001 eV   96.11 nm  f=0.0399  <S**2>=0.000
       9 -> 17        -0.12338
      10 -> 19         0.10547
      11 -> 21         0.65189
      13 -> 25        -0.12467

 Excited State  46:      Singlet-A'    12.9878 eV   95.46 nm  f=0.0260  <S**2>=0.000
       9 -> 18         0.23668
      10 -> 21         0.59483
      11 -> 22        -0.15190
      12 -> 25        -0.12913

 Excited State  47:      Singlet-A"    13.1107 eV   94.57 nm  f=0.0070  <S**2>=0.000
       8 -> 15         0.69690

 Excited State  48:      Singlet-A'    13.2158 eV   93.82 nm  f=0.0265  <S**2>=0.000
       7 -> 15        -0.20044
       9 -> 18         0.52707
      11 -> 22         0.39194

 Excited State  49:      Singlet-A"    13.2787 eV   93.37 nm  f=0.0118  <S**2>=0.000
      10 -> 22         0.67311
      13 -> 26        -0.17738

 Excited State  50:      Singlet-A'    13.2923 eV   93.28 nm  f=0.0385  <S**2>=0.000
       7 -> 15         0.61746
       7 -> 16         0.17812
       9 -> 18         0.24716

 Excited State  51:      Singlet-A"    13.3112 eV   93.14 nm  f=0.0183  <S**2>=0.000
      10 -> 22         0.16002
      13 -> 26         0.67708

 Excited State  52:      Singlet-A'    13.4309 eV   92.31 nm  f=0.0433  <S**2>=0.000
       7 -> 15         0.12167
       8 -> 17        -0.19153
       9 -> 18        -0.23909
      10 -> 21         0.13778
      11 -> 22         0.45199
      12 -> 26         0.32356
      13 -> 27         0.17048

 Excited State  53:      Singlet-A'    13.5580 eV   91.45 nm  f=0.0136  <S**2>=0.000
       8 -> 17         0.15350
      11 -> 22        -0.11646
      12 -> 26         0.57086
      13 -> 27        -0.32427

 Excited State  54:      Singlet-A'    13.6025 eV   91.15 nm  f=0.0088  <S**2>=0.000
       7 -> 16         0.11753
       8 -> 17         0.20934
       9 -> 20        -0.10575
      10 -> 23        -0.16469
      11 -> 22        -0.14451
      12 -> 26         0.19157
      13 -> 27         0.57019

 Excited State  55:      Singlet-A"    13.6754 eV   90.66 nm  f=0.0007  <S**2>=0.000
       8 -> 16        -0.10830
      11 -> 23         0.68561

 Excited State  56:      Singlet-A"    13.7139 eV   90.41 nm  f=0.0033  <S**2>=0.000
       8 -> 16         0.62726
       9 -> 19        -0.10750
      12 -> 27        -0.25435

 Excited State  57:      Singlet-A"    13.7563 eV   90.13 nm  f=0.0000  <S**2>=0.000
       8 -> 16         0.22576
       9 -> 19         0.54992
      12 -> 27         0.37167

 Excited State  58:      Singlet-A"    13.7741 eV   90.01 nm  f=0.0000  <S**2>=0.000
       8 -> 16         0.12619
       9 -> 19        -0.42715
      12 -> 27         0.53403

 Excited State  59:      Singlet-A'    13.8166 eV   89.74 nm  f=0.0200  <S**2>=0.000
       7 -> 16         0.15060
       8 -> 17         0.11729
       9 -> 20         0.64640
      10 -> 23        -0.15110
      11 -> 24        -0.12776

 Excited State  60:      Singlet-A"    13.8913 eV   89.25 nm  f=0.0210  <S**2>=0.000
       7 -> 17         0.68802
      13 -> 28         0.11479

 Excited State  61:      Singlet-A'    13.8933 eV   89.24 nm  f=0.0363  <S**2>=0.000
       7 -> 15        -0.11963
       7 -> 16         0.47028
       8 -> 17        -0.10455
      10 -> 23         0.45204

 Excited State  62:      Singlet-A"    14.0275 eV   88.39 nm  f=0.0000  <S**2>=0.000
      10 -> 24         0.59060
      11 -> 25        -0.35698

 Excited State  63:      Singlet-A'    14.0827 eV   88.04 nm  f=0.0559  <S**2>=0.000
       7 -> 16        -0.18801
       7 -> 18         0.17204
       8 -> 17         0.35598
       9 -> 21        -0.28622
      10 -> 23         0.29182
      11 -> 24        -0.29007

 Excited State  64:      Singlet-A'    14.1202 eV   87.81 nm  f=0.1313  <S**2>=0.000
       7 -> 16         0.17238
       7 -> 18         0.16013
       8 -> 17         0.32253
      10 -> 25        -0.19616
      11 -> 22         0.13025
      11 -> 24         0.45922

 Excited State  65:      Singlet-A"    14.1350 eV   87.71 nm  f=0.0029  <S**2>=0.000
       7 -> 17        -0.10126
      13 -> 28         0.68359

 Excited State  66:      Singlet-A'    14.1872 eV   87.39 nm  f=0.1362  <S**2>=0.000
       7 -> 16        -0.27148
       7 -> 18         0.16182
       7 -> 20         0.12108
       9 -> 20         0.18205
       9 -> 21         0.32386
      10 -> 23         0.28567
      11 -> 24         0.23364
      12 -> 29         0.11156
      13 -> 27         0.10909

 Excited State  67:      Singlet-A"    14.2572 eV   86.96 nm  f=0.0018  <S**2>=0.000
       8 -> 18         0.52970
      10 -> 24         0.18339
      11 -> 25         0.41294

 Excited State  68:      Singlet-A'    14.2836 eV   86.80 nm  f=0.0040  <S**2>=0.000
      10 -> 25         0.66781
      11 -> 24         0.16478

 Excited State  69:      Singlet-A'    14.3317 eV   86.51 nm  f=0.0013  <S**2>=0.000
       9 -> 21         0.18426
      12 -> 28         0.67216

 Excited State  70:      Singlet-A"    14.4503 eV   85.80 nm  f=0.1188  <S**2>=0.000
       7 -> 19        -0.10592
       8 -> 18         0.44070
       8 -> 20         0.10562
      10 -> 24        -0.24128
      11 -> 25        -0.39695
      13 -> 29        -0.10350

 Excited State  71:      Singlet-A'    14.5470 eV   85.23 nm  f=0.0244  <S**2>=0.000
       7 -> 16         0.10068
       7 -> 18         0.50377
       7 -> 20        -0.12277
       9 -> 21         0.26548
      10 -> 26         0.10562
      11 -> 24        -0.17482
      12 -> 28        -0.10415
      12 -> 29        -0.21925

 Excited State  72:      Singlet-A"    14.6566 eV   84.59 nm  f=0.0116  <S**2>=0.000
       9 -> 22         0.69851

 Excited State  73:      Singlet-A"    14.7725 eV   83.93 nm  f=0.0583  <S**2>=0.000
      13 -> 29         0.68431

 Excited State  74:      Singlet-A'    14.8098 eV   83.72 nm  f=0.0202  <S**2>=0.000
       7 -> 18        -0.31513
       7 -> 20         0.10231
       8 -> 17         0.26260
       8 -> 19        -0.10739
       9 -> 21         0.39223
      11 -> 22         0.11812
      11 -> 24        -0.11262
      12 -> 28        -0.11224

 Excited State  75:      Singlet-A'    14.9813 eV   82.76 nm  f=0.0426  <S**2>=0.000
       7 -> 20         0.13002
       8 -> 19         0.56807
      10 -> 26        -0.24279
      12 -> 29        -0.27762

 Excited State  76:      Singlet-A"    14.9890 eV   82.72 nm  f=0.0002  <S**2>=0.000
       7 -> 19         0.45410
       8 -> 20         0.52693

 Excited State  77:      Singlet-A"    15.0471 eV   82.40 nm  f=0.0266  <S**2>=0.000
       7 -> 19         0.42373
       8 -> 20        -0.34738
      11 -> 26        -0.40752
      13 -> 31         0.11918

 Excited State  78:      Singlet-A'    15.0901 eV   82.16 nm  f=0.0172  <S**2>=0.000
       7 -> 20         0.41016
       8 -> 19        -0.22371
       9 -> 21        -0.10127
       9 -> 23        -0.29597
      10 -> 26         0.10023
      12 -> 29        -0.35732

 Excited State  79:      Singlet-A"    15.1410 eV   81.89 nm  f=0.0881  <S**2>=0.000
       7 -> 19         0.26804
       8 -> 20        -0.16703
       8 -> 21         0.12902
       9 -> 24         0.18550
      11 -> 26         0.54744
      13 -> 31         0.15084

 Excited State  80:      Singlet-A'    15.1923 eV   81.61 nm  f=0.0276  <S**2>=0.000
       8 -> 19        -0.20723
       9 -> 23         0.47311
      10 -> 26        -0.35372
      11 -> 27         0.17915
      12 -> 29        -0.19975

 Excited State  81:      Singlet-A'    15.2051 eV   81.54 nm  f=0.0041  <S**2>=0.000
       7 -> 20         0.31019
       9 -> 23         0.16102
      10 -> 26         0.12710
      11 -> 27        -0.13994
      12 -> 29         0.22164
      13 -> 30         0.50479

 Excited State  82:      Singlet-A'    15.3068 eV   81.00 nm  f=0.0090  <S**2>=0.000
       7 -> 20        -0.26127
       7 -> 21         0.11698
      10 -> 26         0.24101
      10 -> 28         0.11256
      11 -> 27         0.38703
      12 -> 29        -0.15658
      12 -> 31         0.11180
      13 -> 30         0.33353

 Excited State  83:      Singlet-A'    15.3579 eV   80.73 nm  f=0.1836  <S**2>=0.000
       6 -> 14        -0.17682
       7 -> 21         0.11168
       8 -> 19         0.11818
       9 -> 23         0.29074
      10 -> 26         0.40926
      12 -> 29        -0.12142
      12 -> 31        -0.25157
      13 -> 30        -0.22863

 Excited State  84:      Singlet-A"    15.3702 eV   80.67 nm  f=0.0131  <S**2>=0.000
       8 -> 21        -0.17010
       9 -> 24        -0.14440
      10 -> 27         0.14361
      12 -> 30         0.23487
      13 -> 31         0.59552

 Excited State  85:      Singlet-A"    15.3804 eV   80.61 nm  f=0.0015  <S**2>=0.000
       8 -> 21        -0.30431
       9 -> 24         0.51826
      10 -> 27        -0.32897
      12 -> 30         0.14114

 Excited State  86:      Singlet-A"    15.4076 eV   80.47 nm  f=0.0096  <S**2>=0.000
       8 -> 21        -0.32916
       9 -> 24         0.19437
      10 -> 27         0.46514
      12 -> 30        -0.35969

 Excited State  87:      Singlet-A'    15.4188 eV   80.41 nm  f=0.1632  <S**2>=0.000
       7 -> 20         0.19566
       9 -> 25        -0.23054
      11 -> 27         0.48400
      12 -> 29         0.19837
      12 -> 31        -0.23926
      13 -> 30        -0.13656

 Excited State  88:      Singlet-A"    15.4320 eV   80.34 nm  f=0.0006  <S**2>=0.000
       9 -> 24         0.14755
      10 -> 27         0.36639
      12 -> 30         0.52751
      13 -> 31        -0.22930

 Excited State  89:      Singlet-A'    15.5783 eV   79.59 nm  f=0.0309  <S**2>=0.000
       6 -> 14         0.25414
       7 -> 21         0.54700
       9 -> 25         0.21783
      12 -> 31         0.17540

 Excited State  90:      Singlet-A'    15.6017 eV   79.47 nm  f=0.0381  <S**2>=0.000
       6 -> 14         0.48375
       7 -> 21        -0.23260
       8 -> 22        -0.16399
       9 -> 25         0.33855
      12 -> 31        -0.21405

 Excited State  91:      Singlet-A'    15.6183 eV   79.38 nm  f=0.2159  <S**2>=0.000
       7 -> 21        -0.30864
      10 -> 26         0.14152
      10 -> 28        -0.10059
      11 -> 27         0.11446
      12 -> 31         0.49461
      13 -> 30        -0.13937

 Excited State  92:      Singlet-A"    15.6422 eV   79.26 nm  f=0.2715  <S**2>=0.000
       7 -> 19        -0.11178
       8 -> 20         0.17095
       8 -> 21         0.47684
       9 -> 24         0.29298
      11 -> 26        -0.11768
      12 -> 30        -0.10866
      12 -> 34         0.10610
      13 -> 31         0.17293

 Excited State  93:      Singlet-A'    15.8437 eV   78.25 nm  f=0.1129  <S**2>=0.000
       8 -> 22         0.56439
       9 -> 25         0.26528
      10 -> 28         0.24756

 Excited State  94:      Singlet-A"    15.8484 eV   78.23 nm  f=0.0140  <S**2>=0.000
      11 -> 28         0.69802

 Excited State  95:      Singlet-A"    15.9194 eV   77.88 nm  f=0.0000  <S**2>=0.000
       7 -> 22         0.69960

 Excited State  96:      Singlet-A'    15.9582 eV   77.69 nm  f=0.0884  <S**2>=0.000
       7 -> 23         0.14978
       8 -> 22        -0.20554
       9 -> 25        -0.11177
      10 -> 28         0.59602
      12 -> 32         0.10774

 Excited State  97:      Singlet-A'    16.0729 eV   77.14 nm  f=0.0677  <S**2>=0.000
       6 -> 14        -0.32671
       6 -> 15        -0.10003
       8 -> 22        -0.27680
       9 -> 23        -0.14936
       9 -> 25         0.35004
      11 -> 27         0.12433
      12 -> 29         0.11575
      12 -> 33        -0.11522
      12 -> 39        -0.10677

 Excited State  98:      Singlet-A"    16.1930 eV   76.57 nm  f=0.0048  <S**2>=0.000
       8 -> 23         0.17165
      13 -> 32         0.66974

 Excited State  99:      Singlet-A"    16.2877 eV   76.12 nm  f=0.0049  <S**2>=0.000
       8 -> 23         0.67863
      13 -> 32        -0.15626

 Excited State 100:      Singlet-A"    16.3301 eV   75.92 nm  f=0.0014  <S**2>=0.000
      13 -> 33         0.69914

 Excited State 101:      Singlet-A'    16.3734 eV   75.72 nm  f=0.0613  <S**2>=0.000
       6 -> 15         0.39651
       7 -> 23        -0.10109
      12 -> 32         0.54392
      13 -> 34        -0.14648

 Excited State 102:      Singlet-A'    16.4850 eV   75.21 nm  f=0.0083  <S**2>=0.000
       7 -> 23         0.46211
       8 -> 24         0.42989
      13 -> 34        -0.22871
      13 -> 36         0.11113

 Excited State 103:      Singlet-A'    16.5232 eV   75.04 nm  f=0.0022  <S**2>=0.000
       6 -> 15        -0.35729
       7 -> 23        -0.25298
       8 -> 24         0.14970
       9 -> 26         0.35945
      12 -> 32         0.21154
      12 -> 33         0.25425

 Excited State 104:      Singlet-A"    16.5568 eV   74.88 nm  f=0.0020  <S**2>=0.000
      11 -> 29         0.67153
      12 -> 34        -0.13264
      13 -> 35         0.11299

 Excited State 105:      Singlet-A'    16.5702 eV   74.82 nm  f=0.0168  <S**2>=0.000
       6 -> 15         0.17176
       7 -> 23         0.13549
       8 -> 24        -0.11629
       9 -> 26         0.50980
      10 -> 29         0.24933
      12 -> 33        -0.10560
      13 -> 34         0.25453
      13 -> 36         0.11901

 Excited State 106:      Singlet-A'    16.5803 eV   74.78 nm  f=0.0059  <S**2>=0.000
       6 -> 15         0.22562

 The electronic state is 1-A'.
 Alpha  occ. eigenvalues --  -24.25463  -9.97006  -9.89889  -1.07410  -0.69076
 Alpha  occ. eigenvalues --   -0.56477  -0.44939  -0.44515  -0.40333  -0.35252
 Alpha  occ. eigenvalues --   -0.35002  -0.29215  -0.28500
 Alpha virt. eigenvalues --    0.00534   0.03422   0.05125   0.05989   0.07968
 Alpha virt. eigenvalues --    0.10154   0.10348   0.12199   0.13531   0.15203
 Alpha virt. eigenvalues --    0.15989   0.16900   0.20426   0.21394   0.23135

 Mulliken charges:
               1
     1  C    0.226381
     2  C    0.498031
     3  F   -0.440066
     4  H   -0.000263
     5  H   -0.004067
     6  H   -0.004067
     7  H   -0.137975
     8  H   -0.137975
 Sum of Mulliken charges =   0.00000

 Dipole moment (field-independent basis, Debye):
    X=             -1.7611    Y=              0.6764    Z=              0.0000  Tot=              1.8865
 Quadrupole moment (field-independent basis, Debye-Ang):
   XX=            -21.0546   YY=            -18.5459   ZZ=            -18.5223
   XY=              0.2839   XZ=              0.0000   YZ=              0.0000

 Normal termination of Gaussian 16 at Mon Mar 21 20:10:24 2022.
