 Gaussian 16, Revision C.01,
 Gaussian 16:  EM64L-G16RevC.01  3-Jul-2019

 ----------------------------------------------------------------------
 #P TD(Nstates=10000) pbepbe/Gen SCF(maxcycles=100) Int(Grid=ultrafine)
 ----------------------------------------------------------------------

 ---------------------
 xGDB7_00001_tier4.com
 ---------------------
 Symbolic Z-matrix:
 Charge =  0 Multiplicity = 1

                         Standard orientation:
 ---------------------------------------------------------------------
 Center     Atomic      Atomic             Coordinates (Angstroms)
 Number     Number       Type             X           Y           Z
 ---------------------------------------------------------------------
      1          6           0        0.000000    0.729549   -0.367364
      2          6           0       -0.000000   -0.729549   -0.367364
      3          8           0       -0.000000   -0.000000    0.845033
      4          1           0       -0.918945    1.264243   -0.587975
      5          1           0        0.918945    1.264243   -0.587975
      6          1           0        0.918945   -1.264243   -0.587975
      7          1           0       -0.918945   -1.264243   -0.587975
 ---------------------------------------------------------------------

 SCF Done:  E(RPBE-PBE) =  -153.500970435     A.U. after   11 cycles

 Excitation energies and oscillator strengths:

 Excited State   1:      Singlet-B1     6.6523 eV  186.38 nm  f=0.0263  <S**2>=0.000
      12 -> 13         0.70485
 This state for optimization and/or second-order correction.
 Total Energy, E(TD-HF/TD-DFT) =  -153.256504673
 Copying the excited state density for this state as the 1-particle RhoCI density.

 Excited State   2:      Singlet-A2     7.1764 eV  172.77 nm  f=0.0000  <S**2>=0.000
      12 -> 14         0.70609

 Excited State   3:      Singlet-B1     7.3770 eV  168.07 nm  f=0.0096  <S**2>=0.000
      12 -> 15         0.70389

 Excited State   4:      Singlet-A1     7.7450 eV  160.08 nm  f=0.0400  <S**2>=0.000
      12 -> 16         0.70255

 Excited State   5:      Singlet-A2     7.9291 eV  156.37 nm  f=0.0000  <S**2>=0.000
      12 -> 17         0.70585

 Excited State   6:      Singlet-A1     8.1318 eV  152.47 nm  f=0.0030  <S**2>=0.000
      11 -> 13         0.69878

 Excited State   7:      Singlet-B2     8.7077 eV  142.38 nm  f=0.0472  <S**2>=0.000
      11 -> 14         0.68631
      11 -> 17         0.16458

 Excited State   8:      Singlet-A1     8.8073 eV  140.77 nm  f=0.0523  <S**2>=0.000
      11 -> 15         0.69544

 Excited State   9:      Singlet-B1     8.9116 eV  139.13 nm  f=0.0137  <S**2>=0.000
      11 -> 16        -0.13693
      12 -> 18         0.69271

 Excited State  10:      Singlet-B1     9.1675 eV  135.24 nm  f=0.0068  <S**2>=0.000
      11 -> 16         0.69255
      12 -> 18         0.13563

 Excited State  11:      Singlet-B2     9.5937 eV  129.24 nm  f=0.0545  <S**2>=0.000
      12 -> 19         0.70522

 Excited State  12:      Singlet-A2     9.7035 eV  127.77 nm  f=0.0000  <S**2>=0.000
      10 -> 13         0.70596

 Excited State  13:      Singlet-B2     9.9932 eV  124.07 nm  f=0.1108  <S**2>=0.000
       9 -> 15        -0.15383
      11 -> 14        -0.14246
      11 -> 17         0.64189
      11 -> 21         0.15474

 Excited State  14:      Singlet-B1    10.0342 eV  123.56 nm  f=0.0028  <S**2>=0.000
      12 -> 20         0.70609

 Excited State  15:      Singlet-A2    10.0545 eV  123.31 nm  f=0.0000  <S**2>=0.000
      12 -> 21         0.70556

 Excited State  16:      Singlet-B1    10.2899 eV  120.49 nm  f=0.0769  <S**2>=0.000
      10 -> 14         0.70440

 Excited State  17:      Singlet-A2    10.3039 eV  120.33 nm  f=0.0000  <S**2>=0.000
      10 -> 15         0.70375

 Excited State  18:      Singlet-B2    10.3192 eV  120.15 nm  f=0.0146  <S**2>=0.000
       9 -> 13         0.70079

 Excited State  19:      Singlet-A1    10.3282 eV  120.04 nm  f=0.0061  <S**2>=0.000
      11 -> 18         0.69486
      12 -> 22         0.11037

 Excited State  20:      Singlet-A1    10.6444 eV  116.48 nm  f=0.0001  <S**2>=0.000
       9 -> 17         0.18577
      11 -> 18        -0.10378
      11 -> 20         0.12984
      12 -> 22         0.64678
      12 -> 24        -0.10370

 Excited State  21:      Singlet-A2    10.8228 eV  114.56 nm  f=0.0000  <S**2>=0.000
      12 -> 23         0.70125

 Excited State  22:      Singlet-B2    10.8886 eV  113.87 nm  f=0.1225  <S**2>=0.000
      10 -> 16         0.68885

 Excited State  23:      Singlet-A1    10.9205 eV  113.53 nm  f=0.0170  <S**2>=0.000
       9 -> 14         0.69039
       9 -> 17         0.12780

 Excited State  24:      Singlet-B1    10.9500 eV  113.23 nm  f=0.0058  <S**2>=0.000
      10 -> 17         0.70381

 Excited State  25:      Singlet-A2    11.0201 eV  112.51 nm  f=0.0000  <S**2>=0.000
      11 -> 19         0.70438

 Excited State  26:      Singlet-A1    11.1168 eV  111.53 nm  f=0.0052  <S**2>=0.000
      12 -> 24         0.69270

 Excited State  27:      Singlet-B2    11.1384 eV  111.31 nm  f=0.0735  <S**2>=0.000
       9 -> 15         0.66689
      11 -> 21         0.19269

 Excited State  28:      Singlet-A2    11.3551 eV  109.19 nm  f=0.0000  <S**2>=0.000
       9 -> 16         0.70551

 Excited State  29:      Singlet-A1    11.5901 eV  106.97 nm  f=0.0040  <S**2>=0.000
       9 -> 17        -0.25837
      10 -> 19         0.10209
      11 -> 20         0.63658

 Excited State  30:      Singlet-B2    11.7583 eV  105.44 nm  f=0.0524  <S**2>=0.000
       9 -> 15        -0.14313
      11 -> 17        -0.15418
      11 -> 21         0.63952
      11 -> 23        -0.12729

 Excited State  31:      Singlet-B1    11.7898 eV  105.16 nm  f=0.0000  <S**2>=0.000
      11 -> 22         0.68162
      12 -> 25        -0.18519

 Excited State  32:      Singlet-B1    11.8485 eV  104.64 nm  f=0.0039  <S**2>=0.000
      11 -> 22         0.18291
      12 -> 25         0.66995

 Excited State  33:      Singlet-A2    12.0132 eV  103.21 nm  f=0.0000  <S**2>=0.000
      10 -> 18         0.70194

 Excited State  34:      Singlet-B2    12.2643 eV  101.09 nm  f=0.0203  <S**2>=0.000
      11 -> 23         0.68966

 Excited State  35:      Singlet-A1    12.3216 eV  100.62 nm  f=0.0039  <S**2>=0.000
       8 -> 13         0.55548
       8 -> 15        -0.11202
       9 -> 17         0.35685
      11 -> 20         0.11691

 Excited State  36:      Singlet-A1    12.5605 eV   98.71 nm  f=0.0046  <S**2>=0.000
       8 -> 13        -0.32949
       8 -> 15        -0.21028
       9 -> 17         0.34613
      10 -> 19         0.40921
      11 -> 20         0.11019
      11 -> 27         0.11126
      12 -> 22        -0.10688

 Excited State  37:      Singlet-B1    12.5678 eV   98.65 nm  f=0.0185  <S**2>=0.000
      11 -> 24         0.69045

 Excited State  38:      Singlet-B2    12.5695 eV   98.64 nm  f=0.0056  <S**2>=0.000
       9 -> 18         0.70323

 Excited State  39:      Singlet-B2    12.7656 eV   97.12 nm  f=0.0291  <S**2>=0.000
      12 -> 26         0.69630

 Excited State  40:      Singlet-B2    12.9517 eV   95.73 nm  f=0.1540  <S**2>=0.000
       8 -> 14         0.69741

 Excited State  41:      Singlet-B1    12.9871 eV   95.47 nm  f=0.0001  <S**2>=0.000
       7 -> 13        -0.22390
      12 -> 27         0.65522

 Excited State  42:      Singlet-A2    13.0254 eV   95.19 nm  f=0.0000  <S**2>=0.000
      10 -> 20         0.70643

 Excited State  43:      Singlet-A1    13.0259 eV   95.18 nm  f=0.0189  <S**2>=0.000
       7 -> 16        -0.17929
       8 -> 13         0.23685
       8 -> 15         0.15412
       9 -> 17        -0.17893
      10 -> 19         0.50966
      11 -> 20        -0.15010
      11 -> 25        -0.14680
      12 -> 22         0.11101

 Excited State  44:      Singlet-B1    13.1007 eV   94.64 nm  f=0.0013  <S**2>=0.000
       7 -> 13         0.10345
      10 -> 21         0.69134

 Excited State  45:      Singlet-B1    13.1204 eV   94.50 nm  f=0.0542  <S**2>=0.000
       7 -> 13         0.63030
       8 -> 16        -0.10667
       9 -> 19         0.18482
      10 -> 21        -0.13441
      12 -> 27         0.17148

 Excited State  46:      Singlet-A1    13.2014 eV   93.92 nm  f=0.0947  <S**2>=0.000
       8 -> 15         0.60175
       9 -> 17         0.16975
       9 -> 21         0.12123
      11 -> 25         0.14422
      11 -> 27         0.15746
      12 -> 29        -0.15857

 Excited State  47:      Singlet-B1    13.2603 eV   93.50 nm  f=0.0327  <S**2>=0.000
       7 -> 13        -0.14200
       8 -> 16         0.14544
       9 -> 19         0.66935

 Excited State  48:      Singlet-A1    13.3508 eV   92.87 nm  f=0.1183  <S**2>=0.000
       8 -> 15        -0.12970
      10 -> 19         0.12649
      11 -> 25         0.65561

 Excited State  49:      Singlet-B2    13.4114 eV   92.45 nm  f=0.0167  <S**2>=0.000
       8 -> 17         0.11792
      10 -> 22         0.68761

 Excited State  50:      Singlet-B1    13.4500 eV   92.18 nm  f=0.0782  <S**2>=0.000
       8 -> 16         0.66277
      10 -> 23         0.15850

 Excited State  51:      Singlet-A2    13.4797 eV   91.98 nm  f=0.0000  <S**2>=0.000
       7 -> 14        -0.15813
      12 -> 28         0.68421

 Excited State  52:      Singlet-A2    13.6670 eV   90.72 nm  f=0.0000  <S**2>=0.000
       7 -> 14         0.68595
      12 -> 28         0.15157

 Excited State  53:      Singlet-B2    13.6822 eV   90.62 nm  f=0.0350  <S**2>=0.000
       8 -> 17        -0.27700
       9 -> 20         0.64340

 Excited State  54:      Singlet-B1    13.7424 eV   90.22 nm  f=0.0003  <S**2>=0.000
       7 -> 15         0.64674
      10 -> 23         0.27055

 Excited State  55:      Singlet-A1    13.7509 eV   90.16 nm  f=0.0378  <S**2>=0.000
       7 -> 16         0.15630
       9 -> 21         0.47914
      12 -> 29         0.48151

 Excited State  56:      Singlet-B2    13.8186 eV   89.72 nm  f=0.0021  <S**2>=0.000
       8 -> 17         0.61416
       9 -> 20         0.28693
      10 -> 22        -0.10780
      10 -> 24        -0.13673

 Excited State  57:      Singlet-A1    13.8712 eV   89.38 nm  f=0.1087  <S**2>=0.000
       7 -> 16        -0.15486
       8 -> 15         0.10055
       9 -> 21        -0.43414
      11 -> 27         0.24471
      12 -> 29         0.44471

 Excited State  58:      Singlet-A2    14.0320 eV   88.36 nm  f=0.0000  <S**2>=0.000
       9 -> 22         0.69087

 Excited State  59:      Singlet-B1    14.1634 eV   87.54 nm  f=0.2331  <S**2>=0.000
       7 -> 15        -0.22055
       7 -> 18         0.11389
      10 -> 23         0.43954
      12 -> 30         0.46196

 Excited State  60:      Singlet-A2    14.1665 eV   87.52 nm  f=0.0000  <S**2>=0.000
       7 -> 17         0.11113
      11 -> 26         0.69358

 Excited State  61:      Singlet-A2    14.3178 eV   86.59 nm  f=0.0000  <S**2>=0.000
       7 -> 17         0.68556
      11 -> 26        -0.10274

 Excited State  62:      Singlet-A2    14.3286 eV   86.53 nm  f=0.0000  <S**2>=0.000
      12 -> 31         0.70212

 Excited State  63:      Singlet-B1    14.3321 eV   86.51 nm  f=0.1433  <S**2>=0.000
       7 -> 15         0.11939
       7 -> 18        -0.14766
      10 -> 23        -0.38806
      12 -> 30         0.52959

 Excited State  64:      Singlet-B2    14.3790 eV   86.23 nm  f=0.2473  <S**2>=0.000
       8 -> 17         0.13274
       9 -> 25         0.15876
      10 -> 24         0.65319

 Excited State  65:      Singlet-A1    14.4212 eV   85.97 nm  f=0.0240  <S**2>=0.000
       7 -> 16         0.44287
       8 -> 18         0.30359
       9 -> 23        -0.40304
      11 -> 27         0.11904

 Excited State  66:      Singlet-A1    14.5146 eV   85.42 nm  f=0.0148  <S**2>=0.000
       7 -> 16         0.20304
       8 -> 18         0.21670
       9 -> 23         0.54353
      11 -> 27         0.28180
      12 -> 32        -0.14519

 Excited State  67:      Singlet-A2    14.7252 eV   84.20 nm  f=0.0000  <S**2>=0.000
       9 -> 24         0.67731
      10 -> 25         0.18378

 Excited State  68:      Singlet-A1    14.7299 eV   84.17 nm  f=0.0160  <S**2>=0.000
       7 -> 16        -0.35189
       8 -> 18         0.54693
       9 -> 21         0.11902
      10 -> 19        -0.10475

 Excited State  69:      Singlet-A1    14.8405 eV   83.54 nm  f=0.0180  <S**2>=0.000
       7 -> 16         0.15143
       8 -> 18         0.15936
       8 -> 20        -0.11335
       9 -> 23         0.14870
      11 -> 27        -0.25689
      12 -> 32         0.56179

 Excited State  70:      Singlet-A2    14.8983 eV   83.22 nm  f=0.0000  <S**2>=0.000
       9 -> 24        -0.17860
      10 -> 25         0.66783

 Excited State  71:      Singlet-A1    15.0371 eV   82.45 nm  f=0.1843  <S**2>=0.000
       8 -> 18        -0.16340
       8 -> 20         0.17995
       9 -> 17        -0.12525
       9 -> 28        -0.11882
      10 -> 26        -0.13594
      11 -> 27         0.42154
      12 -> 29        -0.12348
      12 -> 32         0.37109

 Excited State  72:      Singlet-B2    15.0464 eV   82.40 nm  f=0.0503  <S**2>=0.000
      11 -> 28         0.69326

 Excited State  73:      Singlet-B1    15.1764 eV   81.70 nm  f=0.0072  <S**2>=0.000
      11 -> 29         0.69542

 Excited State  74:      Singlet-B1    15.2896 eV   81.09 nm  f=0.0321  <S**2>=0.000
       7 -> 18         0.32402
      12 -> 33         0.62584

 Excited State  75:      Singlet-A2    15.2918 eV   81.08 nm  f=0.0000  <S**2>=0.000
       8 -> 19         0.70411

 Excited State  76:      Singlet-B2    15.5442 eV   79.76 nm  f=0.0608  <S**2>=0.000
       9 -> 25         0.51639
      11 -> 31        -0.12818
      12 -> 34        -0.43922

 Excited State  77:      Singlet-B1    15.6159 eV   79.40 nm  f=0.3936  <S**2>=0.000
       7 -> 18         0.56972
       8 -> 22         0.10719
       9 -> 26         0.12111
      10 -> 23        -0.12931
      11 -> 29         0.10293
      12 -> 33        -0.28577

 Excited State  78:      Singlet-B2    15.7011 eV   78.97 nm  f=0.2119  <S**2>=0.000
       8 -> 21         0.10008
       9 -> 25         0.34208
      11 -> 31        -0.25732
      12 -> 34         0.52561

 Excited State  79:      Singlet-A1    15.7484 eV   78.73 nm  f=0.0019  <S**2>=0.000
      10 -> 26         0.15026
      11 -> 30         0.68254

 Excited State  80:      Singlet-B2    15.7774 eV   78.58 nm  f=0.0028  <S**2>=0.000
       8 -> 21         0.65914
      11 -> 31         0.23688

 Excited State  81:      Singlet-A1    15.8026 eV   78.46 nm  f=0.1000  <S**2>=0.000
       8 -> 20         0.36726
      10 -> 26         0.58277
      11 -> 30        -0.11482

 Excited State  82:      Singlet-A2    15.8883 eV   78.03 nm  f=0.0000  <S**2>=0.000
      10 -> 27         0.69571

 Excited State  83:      Singlet-B2    15.9084 eV   77.94 nm  f=0.1173  <S**2>=0.000
       6 -> 13         0.30918
       7 -> 19         0.19058
       8 -> 21        -0.21750
       9 -> 25         0.15068
      11 -> 31         0.50917
      12 -> 34         0.13038

 Excited State  84:      Singlet-A1    15.9912 eV   77.53 nm  f=0.1541  <S**2>=0.000
       6 -> 14        -0.15595
       8 -> 20         0.52324
       9 -> 28         0.13620
      10 -> 26        -0.30929
      11 -> 27        -0.12447
      11 -> 33         0.10595

 Excited State  85:      Singlet-B2    15.9917 eV   77.53 nm  f=0.0197  <S**2>=0.000
       6 -> 13         0.50596
       7 -> 19        -0.45462
       8 -> 23         0.11359

 Excited State  86:      Singlet-B1    16.0888 eV   77.06 nm  f=0.0121  <S**2>=0.000
       8 -> 22         0.68497

 Excited State  87:      Singlet-A2    16.1536 eV   76.75 nm  f=0.0000  <S**2>=0.000
      12 -> 35         0.69606

 Excited State  88:      Singlet-B2    16.3072 eV   76.03 nm  f=0.0074  <S**2>=0.000
       6 -> 13         0.25395
       6 -> 15         0.12770
       7 -> 19         0.43385
       8 -> 23         0.26865
       9 -> 27        -0.29195
      11 -> 31        -0.19650

 Excited State  89:      Singlet-B1    16.3237 eV   75.95 nm  f=0.0021  <S**2>=0.000
       9 -> 26         0.20350
      11 -> 32         0.65456
      12 -> 36        -0.11417

 Excited State  90:      Singlet-B1    16.4325 eV   75.45 nm  f=0.0231  <S**2>=0.000
       7 -> 20         0.49525
       8 -> 24         0.10214
       9 -> 26        -0.45834
      11 -> 32         0.13780

 Excited State  91:      Singlet-B1    16.4809 eV   75.23 nm  f=0.0622  <S**2>=0.000
       7 -> 20         0.49374
       8 -> 24        -0.16279
       9 -> 26         0.42719
      12 -> 36         0.14215

 Excited State  92:      Singlet-A2    16.5036 eV   75.13 nm  f=0.0000  <S**2>=0.000
       7 -> 21         0.70573

 Excited State  93:      Singlet-B2    16.5236 eV   75.03 nm  f=0.0334  <S**2>=0.000
       6 -> 15         0.16283
       8 -> 23         0.43799
       9 -> 27         0.51519

 Excited State  94:      Singlet-A1    16.5940 eV   74.72 nm  f=0.0035  <S**2>=0.000
       5 -> 13         0.27305
       6 -> 14         0.56385
      11 -> 33         0.29360

 Excited State  95:      Singlet-B1    16.5972 eV   74.70 nm  f=0.0308  <S**2>=0.000
       8 -> 24         0.14186
       9 -> 26        -0.12000
      10 -> 28        -0.46991
      12 -> 36         0.47368

 Excited State  96:      Singlet-B1    16.6155 eV   74.62 nm  f=0.0000  <S**2>=0.000
      10 -> 28         0.49564
      11 -> 32         0.10161
      12 -> 36         0.47256

 Excited State  97:      Singlet-A2    16.6158 eV   74.62 nm  f=0.0000  <S**2>=0.000
      12 -> 37         0.70451

 Excited State  98:      Singlet-B2    16.6617 eV   74.41 nm  f=0.0004  <S**2>=0.000
       6 -> 15         0.54531
       8 -> 23        -0.29065
      10 -> 29         0.32634

 Excited State  99:      Singlet-B2    16.7733 eV   73.92 nm  f=0.0104  <S**2>=0.000
       6 -> 15        -0.35093
       7 -> 19         0.11510
       8 -> 23        -0.15822
       9 -> 27         0.16506
      10 -> 29         0.37497
      12 -> 38        -0.35163

 Excited State 100:      Singlet-A1    16.7767 eV   73.90 nm  f=0.0826  <S**2>=0.000
       5 -> 13        -0.37826
       6 -> 17        -0.10516
      11 -> 33         0.56958

 Excited State 101:      Singlet-A1    16.8135 eV   73.74 nm  f=0.0315  <S**2>=0.000
       5 -> 13        -0.23338
       7 -> 22         0.64668

 Excited State 102:      Singlet-B2    16.9037 eV   73.35 nm  f=0.0003  <S**2>=0.000
       5 -> 14         0.19948
       6 -> 13         0.12784
       7 -> 19         0.12591
       8 -> 23        -0.21394
       9 -> 27         0.23782
      11 -> 35        -0.14438
      12 -> 38         0.51779

 Excited State 103:      Singlet-B1    16.9258 eV   73.25 nm  f=0.1372  <S**2>=0.000
       8 -> 24         0.64150
       9 -> 26         0.15193
      11 -> 32        -0.10625

 Excited State 104:      Singlet-B2    16.9459 eV   73.16 nm  f=0.0825  <S**2>=0.000
       5 -> 14        -0.19118
       6 -> 15        -0.12329
       8 -> 23         0.19194
       9 -> 25         0.10192
       9 -> 27        -0.16607
      10 -> 29         0.46931
      11 -> 35         0.13927
      12 -> 38         0.29827

 Excited State 105:      Singlet-B1    17.0326 eV   72.79 nm  f=0.0004  <S**2>=0.000
      12 -> 39         0.70347

 Excited State 106:      Singlet-A2    17.0344 eV   72.78 nm  f=0.0000  <S**2>=0.000
       6 -> 16         0.63279
      10 -> 30         0.19027
      11 -> 34        -0.22706

 Excited State 107:      Singlet-A2    17.0751 eV   72.61 nm  f=0.0000  <S**2>=0.000
       6 -> 16         0.22750
      11 -> 34         0.66016

 Excited State 108:      Singlet-A1    17.1546 eV   72.27 nm  f=0.0076  <S**2>=0.000
       5 -> 13         0.42593
       6 -> 14        -0.31337
       7 -> 22         0.17828
       7 -> 24        -0.18469
       8 -> 25         0.11919
       9 -> 31         0.14500
      11 -> 33         0.21949

 Excited State 109:      Singlet-A2    17.2182 eV   72.01 nm  f=0.0000  <S**2>=0.000
       6 -> 16         0.17973
       7 -> 23         0.47737
       9 -> 29        -0.15395
      10 -> 30        -0.45418

 Excited State 110:      Singlet-A1    17.2282 eV   71.97 nm  f=0.0308  <S**2>=0.000
       5 -> 13        -0.10111
       5 -> 15        -0.13832
       6 -> 17         0.37755
       8 -> 25         0.26399
       9 -> 28         0.48717

 Excited State 111:      Singlet-B1    17.3764 eV   71.35 nm  f=0.0165  <S**2>=0.000
       5 -> 16        -0.11218
      10 -> 31         0.68567

 Excited State 112:      Singlet-A2    17.4174 eV   71.18 nm  f=0.0000  <S**2>=0.000
       7 -> 23        -0.16272
       9 -> 29         0.59128
      10 -> 30        -0.33903

 Excited State 113:      Singlet-B2    17.4767 eV   70.94 nm  f=0.0079  <S**2>=0.000
       5 -> 14         0.54519
       5 -> 17         0.12933
      11 -> 35         0.38909

 Excited State 114:      Singlet-A1    17.5012 eV   70.84 nm  f=0.0021  <S**2>=0.000
       5 -> 15         0.40283
       6 -> 17        -0.11773
       7 -> 24         0.34544
       8 -> 25         0.44030

 Excited State 115:      Singlet-A2    17.5737 eV   70.55 nm  f=0.0000  <S**2>=0.000
       7 -> 23         0.45762
       9 -> 29         0.35004
      10 -> 30         0.35760

 Excited State 116:      Singlet-A1    17.6466 eV   70.26 nm  f=0.0266  <S**2>=0.000
       5 -> 15        -0.33984
       6 -> 17        -0.12306
       7 -> 24         0.48026
       8 -> 25        -0.12392
       8 -> 27        -0.13253
       9 -> 28         0.18489
       9 -> 31         0.13205

 Excited State 117:      Singlet-A1    17.8178 eV   69.58 nm  f=0.2491  <S**2>=0.000
       5 -> 15         0.37772
       8 -> 25        -0.36215
       8 -> 27        -0.11526
       9 -> 28         0.20856
       9 -> 31         0.13725
      11 -> 36        -0.27042
      11 -> 39        -0.12222
      12 -> 44         0.14838

 Excited State 118:      Singlet-B2    17.8215 eV   69.57 nm  f=0.0022  <S**2>=0.000
       5 -> 14         0.15690
       5 -> 17         0.10184
       9 -> 30         0.48903
      11 -> 35        -0.42661

 Excited State 119:      Singlet-B1    17.9632 eV   69.02 nm  f=0.0089  <S**2>=0.000
       5 -> 16         0.66918
       7 -> 25        -0.15771

 Excited State 120:      Singlet-A1    18.0227 eV   68.79 nm  f=0.0075  <S**2>=0.000
       9 -> 31         0.32169
      11 -> 36         0.58703

 Excited State 121:      Singlet-B2    18.0394 eV   68.73 nm  f=0.0028  <S**2>=0.000
       5 -> 17        -0.22072
       6 -> 18        -0.18972
       9 -> 30         0.38932
      10 -> 32         0.34649
      11 -> 35         0.21920
      11 -> 37        -0.20157
      12 -> 42         0.15575

 Excited State 122:      Singlet-B2    18.0455 eV   68.71 nm  f=0.0000  <S**2>=0.000
      10 -> 32         0.12913
      11 -> 37         0.67441

 Excited State 123:      Singlet-A1    18.0517 eV   68.68 nm  f=0.0369  <S**2>=0.000
       6 -> 17         0.45567
       6 -> 21         0.11779
       7 -> 24         0.25794

 The electronic state is 1-A1.
 Alpha  occ. eigenvalues --  -18.78383  -9.95124  -9.95109  -0.99730  -0.60412
 Alpha  occ. eigenvalues --   -0.57292  -0.46747  -0.44110  -0.36615  -0.34277
 Alpha  occ. eigenvalues --   -0.28431  -0.23195
 Alpha virt. eigenvalues --    0.01168   0.03176   0.03341   0.05072   0.05444
 Alpha virt. eigenvalues --    0.09529   0.12034   0.13691   0.13878   0.14851
 Alpha virt. eigenvalues --    0.16453   0.17447   0.19851   0.23704   0.23986

 Mulliken charges:
               1
     1  C    0.647313
     2  C    0.647313
     3  O   -0.583485
     4  H   -0.177785
     5  H   -0.177785
     6  H   -0.177785
     7  H   -0.177785
 Sum of Mulliken charges =   0.00000

 Dipole moment (field-independent basis, Debye):
    X=             -0.0000    Y=              0.0000    Z=             -1.7803  Tot=              1.7803
 Quadrupole moment (field-independent basis, Debye-Ang):
   XX=            -17.7117   YY=            -16.8059   ZZ=            -20.9883
   XY=              0.0000   XZ=             -0.0000   YZ=              0.0000

 Normal termination of Gaussian 16 at Mon Mar 21 20:17:34 2022.
