 Gaussian 16, Revision C.01,
 Gaussian 16:  EM64L-G16RevC.01  3-Jul-2019

 ----------------------------------------------------------------------
 #P TD(Nstates=10000) pbepbe/Gen SCF(maxcycles=100) Int(Grid=ultrafine)
 ----------------------------------------------------------------------

 ---------------------
 xGDB7_00001_tier4.com
 ---------------------
 Symbolic Z-matrix:
 Charge =  0 Multiplicity = 1

                         Standard orientation:
 ---------------------------------------------------------------------
 Center     Atomic      Atomic             Coordinates (Angstroms)
 Number     Number       Type             X           Y           Z
 ---------------------------------------------------------------------
      1          6           0       -1.208422   -0.239069   -0.021917
      2          6           0        0.083893    0.553452    0.046734
      3          8           0        1.233467   -0.256002   -0.105864
      4          1           0       -2.071999    0.425135    0.051700
      5          1           0       -1.270670   -0.957756    0.799731
      6          1           0       -1.270625   -0.788280   -0.962327
      7          1           0        0.130030    1.119197    0.986112
      8          1           0        0.125951    1.277026   -0.768547
      9          1           0        1.236751   -0.913605    0.591341
 ---------------------------------------------------------------------

 SCF Done:  E(RPBE-PBE) =  -154.741190688     A.U. after   13 cycles

 Excitation energies and oscillator strengths:

 Excited State   1:      Singlet-A      6.2126 eV  199.57 nm  f=0.0140  <S**2>=0.000
      13 -> 14         0.70623
 This state for optimization and/or second-order correction.
 Total Energy, E(TD-HF/TD-DFT) =  -154.512880657
 Copying the excited state density for this state as the 1-particle RhoCI density.

 Excited State   2:      Singlet-A      7.0867 eV  174.95 nm  f=0.0134  <S**2>=0.000
      13 -> 15         0.70302

 Excited State   3:      Singlet-A      7.3908 eV  167.75 nm  f=0.0249  <S**2>=0.000
      13 -> 16         0.70273

 Excited State   4:      Singlet-A      7.6589 eV  161.88 nm  f=0.0170  <S**2>=0.000
      12 -> 14         0.70216

 Excited State   5:      Singlet-A      7.9576 eV  155.81 nm  f=0.0484  <S**2>=0.000
      13 -> 17         0.70348

 Excited State   6:      Singlet-A      8.5179 eV  145.56 nm  f=0.0175  <S**2>=0.000
      12 -> 15         0.70347

 Excited State   7:      Singlet-A      8.5621 eV  144.81 nm  f=0.0208  <S**2>=0.000
      13 -> 18         0.70212

 Excited State   8:      Singlet-A      8.8581 eV  139.97 nm  f=0.0384  <S**2>=0.000
      12 -> 16         0.65764
      13 -> 19         0.25369

 Excited State   9:      Singlet-A      8.8767 eV  139.67 nm  f=0.0187  <S**2>=0.000
      12 -> 16        -0.24410
      13 -> 19         0.63225
      13 -> 20         0.17620

 Excited State  10:      Singlet-A      8.9329 eV  138.80 nm  f=0.0263  <S**2>=0.000
      10 -> 14        -0.10300
      11 -> 14         0.69373

 Excited State  11:      Singlet-A      9.0768 eV  136.59 nm  f=0.0010  <S**2>=0.000
      13 -> 19        -0.15301
      13 -> 20         0.67587

 Excited State  12:      Singlet-A      9.2050 eV  134.69 nm  f=0.0333  <S**2>=0.000
      10 -> 14         0.69007
      11 -> 14         0.10032

 Excited State  13:      Singlet-A      9.3963 eV  131.95 nm  f=0.0058  <S**2>=0.000
      13 -> 21         0.69557

 Excited State  14:      Singlet-A      9.4069 eV  131.80 nm  f=0.0405  <S**2>=0.000
      12 -> 17         0.69370

 Excited State  15:      Singlet-A      9.7047 eV  127.76 nm  f=0.0115  <S**2>=0.000
      11 -> 15         0.13254
      13 -> 22         0.68147

 Excited State  16:      Singlet-A      9.7905 eV  126.64 nm  f=0.0073  <S**2>=0.000
      11 -> 15         0.68646
      13 -> 22        -0.12848

 Excited State  17:      Singlet-A      9.9618 eV  124.46 nm  f=0.0049  <S**2>=0.000
      13 -> 23         0.69277

 Excited State  18:      Singlet-A     10.0197 eV  123.74 nm  f=0.0253  <S**2>=0.000
      12 -> 18         0.69540

 Excited State  19:      Singlet-A     10.0425 eV  123.46 nm  f=0.0226  <S**2>=0.000
      10 -> 15         0.69352

 Excited State  20:      Singlet-A     10.1310 eV  122.38 nm  f=0.0534  <S**2>=0.000
      11 -> 16         0.69725

 Excited State  21:      Singlet-A     10.3347 eV  119.97 nm  f=0.0269  <S**2>=0.000
      10 -> 16         0.11376
      12 -> 19         0.67392
      13 -> 24         0.13439

 Excited State  22:      Singlet-A     10.4034 eV  119.18 nm  f=0.0827  <S**2>=0.000
       9 -> 14         0.11467
      10 -> 16         0.66826
      13 -> 24        -0.10798

 Excited State  23:      Singlet-A     10.4682 eV  118.44 nm  f=0.0185  <S**2>=0.000
       9 -> 14         0.22675
      12 -> 19        -0.11432
      12 -> 20         0.11937
      13 -> 24         0.63814

 Excited State  24:      Singlet-A     10.5268 eV  117.78 nm  f=0.0424  <S**2>=0.000
       9 -> 14         0.64368
      10 -> 16        -0.13307
      12 -> 20        -0.13449
      13 -> 24        -0.18223

 Excited State  25:      Singlet-A     10.5769 eV  117.22 nm  f=0.0052  <S**2>=0.000
       9 -> 14         0.10354
      12 -> 20         0.63103
      13 -> 24        -0.11244
      13 -> 25        -0.22147

 Excited State  26:      Singlet-A     10.6928 eV  115.95 nm  f=0.0847  <S**2>=0.000
      11 -> 17         0.67892

 Excited State  27:      Singlet-A     10.8147 eV  114.64 nm  f=0.0030  <S**2>=0.000
      10 -> 17        -0.21513
      12 -> 20         0.15069
      12 -> 21         0.23679
      13 -> 25         0.58489

 Excited State  28:      Singlet-A     10.9204 eV  113.53 nm  f=0.0229  <S**2>=0.000
      10 -> 17         0.35566
      12 -> 21         0.58600

 Excited State  29:      Singlet-A     10.9436 eV  113.29 nm  f=0.0287  <S**2>=0.000
      10 -> 17         0.55928
      12 -> 21        -0.27165
      12 -> 22         0.10588
      13 -> 25         0.25010

 Excited State  30:      Singlet-A     11.1130 eV  111.57 nm  f=0.0212  <S**2>=0.000
       8 -> 14         0.59215
      12 -> 22        -0.37063

 Excited State  31:      Singlet-A     11.1430 eV  111.27 nm  f=0.0321  <S**2>=0.000
       8 -> 14         0.35436
      12 -> 22         0.57364

 Excited State  32:      Singlet-A     11.3306 eV  109.42 nm  f=0.0232  <S**2>=0.000
       9 -> 15         0.33416
      11 -> 18         0.57877
      12 -> 23         0.15346

 Excited State  33:      Singlet-A     11.3933 eV  108.82 nm  f=0.0177  <S**2>=0.000
       9 -> 15         0.42901
      10 -> 18         0.11688
      11 -> 18        -0.24494
      12 -> 23        -0.17626
      13 -> 26        -0.41367

 Excited State  34:      Singlet-A     11.4093 eV  108.67 nm  f=0.0363  <S**2>=0.000
       9 -> 15         0.40617
      10 -> 18         0.12368
      11 -> 18        -0.16397
      11 -> 19         0.10234
      13 -> 26         0.51218

 Excited State  35:      Singlet-A     11.4353 eV  108.42 nm  f=0.0033  <S**2>=0.000
      11 -> 18        -0.16628
      12 -> 23         0.65516
      13 -> 26        -0.14988

 Excited State  36:      Singlet-A     11.4535 eV  108.25 nm  f=0.0237  <S**2>=0.000
      13 -> 27         0.68398

 Excited State  37:      Singlet-A     11.5753 eV  107.11 nm  f=0.0092  <S**2>=0.000
      11 -> 19         0.67792
      13 -> 26        -0.10183

 Excited State  38:      Singlet-A     11.6588 eV  106.34 nm  f=0.0221  <S**2>=0.000
       9 -> 15        -0.11516
       9 -> 16        -0.11263
      10 -> 18         0.62702
      10 -> 20         0.10990
      11 -> 18         0.11949

 Excited State  39:      Singlet-A     11.7115 eV  105.87 nm  f=0.0678  <S**2>=0.000
       9 -> 16         0.67071
      10 -> 18         0.11411
      10 -> 19        -0.12018

 Excited State  40:      Singlet-A     11.8069 eV  105.01 nm  f=0.0077  <S**2>=0.000
      10 -> 19         0.49055
      11 -> 20        -0.47647

 Excited State  41:      Singlet-A     11.8554 eV  104.58 nm  f=0.0085  <S**2>=0.000
       9 -> 16         0.11768
      10 -> 19         0.46012
      10 -> 20         0.13435
      11 -> 20         0.43117
      13 -> 28        -0.19918

 Excited State  42:      Singlet-A     11.8826 eV  104.34 nm  f=0.0009  <S**2>=0.000
      10 -> 19         0.11998
      11 -> 20         0.14139
      13 -> 28         0.65665

 Excited State  43:      Singlet-A     11.9487 eV  103.76 nm  f=0.0743  <S**2>=0.000
       8 -> 15         0.59582
      12 -> 24         0.32257
      13 -> 28         0.10342

 Excited State  44:      Singlet-A     12.0125 eV  103.21 nm  f=0.0680  <S**2>=0.000
       8 -> 15        -0.32596
      12 -> 24         0.58531

 Excited State  45:      Singlet-A     12.0924 eV  102.53 nm  f=0.0202  <S**2>=0.000
       9 -> 17         0.11342
      10 -> 20         0.60245
      11 -> 21         0.24627

 Excited State  46:      Singlet-A     12.1788 eV  101.80 nm  f=0.0077  <S**2>=0.000
       9 -> 17        -0.36613
      10 -> 20        -0.11683
      11 -> 21         0.44581
      12 -> 25         0.35563

 Excited State  47:      Singlet-A     12.2379 eV  101.31 nm  f=0.0205  <S**2>=0.000
       8 -> 16         0.23390
       9 -> 17        -0.19177
      10 -> 20         0.16184
      10 -> 22        -0.13076
      11 -> 21        -0.36135
      11 -> 22         0.17773
      12 -> 25         0.40462

 Excited State  48:      Singlet-A     12.2982 eV  100.82 nm  f=0.0205  <S**2>=0.000
       9 -> 17         0.50481
      10 -> 21        -0.13692
      11 -> 22        -0.22088
      12 -> 25         0.35360

 Excited State  49:      Singlet-A     12.3144 eV  100.68 nm  f=0.0169  <S**2>=0.000
       7 -> 14        -0.11981
       8 -> 16         0.62785
      11 -> 22        -0.16504
      12 -> 25        -0.17532

 Excited State  50:      Singlet-A     12.3841 eV  100.12 nm  f=0.0185  <S**2>=0.000
      10 -> 21         0.59160
      11 -> 22        -0.35495

 Excited State  51:      Singlet-A     12.4290 eV   99.75 nm  f=0.0345  <S**2>=0.000
       7 -> 14        -0.34817
       9 -> 17         0.13635
      10 -> 21         0.29081
      10 -> 22         0.13227
      11 -> 21         0.11239
      11 -> 22         0.43543

 Excited State  52:      Singlet-A     12.4749 eV   99.39 nm  f=0.0438  <S**2>=0.000
       7 -> 14         0.54068
       8 -> 16         0.13177
       8 -> 17        -0.12039
       9 -> 17         0.12241
      10 -> 21         0.12938
      10 -> 22         0.23200
      11 -> 22         0.20001

 Excited State  53:      Singlet-A     12.7113 eV   97.54 nm  f=0.0254  <S**2>=0.000
       8 -> 17         0.26692
       9 -> 18         0.16853
      10 -> 22         0.46916
      11 -> 23        -0.21436
      13 -> 29         0.31440

 Excited State  54:      Singlet-A     12.7199 eV   97.47 nm  f=0.0236  <S**2>=0.000
      10 -> 22        -0.20492
      11 -> 23         0.24316
      13 -> 29         0.57457
      13 -> 30         0.13519

 Excited State  55:      Singlet-A     12.7680 eV   97.11 nm  f=0.0196  <S**2>=0.000
       9 -> 18         0.12191
      10 -> 22         0.23369
      10 -> 23        -0.17909
      11 -> 23         0.55665
      12 -> 26         0.13671
      13 -> 29        -0.11938

 Excited State  56:      Singlet-A     12.8893 eV   96.19 nm  f=0.0091  <S**2>=0.000
       7 -> 15        -0.10372
       8 -> 17        -0.21916
      11 -> 23        -0.13158
      12 -> 26         0.56999
      12 -> 27         0.20568
      13 -> 30         0.12449

 Excited State  57:      Singlet-A     12.9003 eV   96.11 nm  f=0.0308  <S**2>=0.000
       8 -> 17        -0.39888
       9 -> 18         0.48413
      10 -> 23         0.17876
      12 -> 27        -0.19203

 Excited State  58:      Singlet-A     12.9429 eV   95.79 nm  f=0.0140  <S**2>=0.000
       9 -> 18         0.19769
      12 -> 26        -0.16948
      12 -> 27         0.59555
      13 -> 29         0.11320

 Excited State  59:      Singlet-A     13.0247 eV   95.19 nm  f=0.0235  <S**2>=0.000
       9 -> 18        -0.17874
       9 -> 19         0.18545
      10 -> 23         0.47435
      11 -> 23         0.11934
      13 -> 30        -0.37200

 Excited State  60:      Singlet-A     13.1028 eV   94.62 nm  f=0.0347  <S**2>=0.000
       8 -> 17        -0.24354
       9 -> 18        -0.19216
       9 -> 19         0.33297
      10 -> 22         0.13371
      11 -> 24         0.23030
      12 -> 26        -0.20590
      13 -> 30         0.34223

 Excited State  61:      Singlet-A     13.1291 eV   94.43 nm  f=0.0087  <S**2>=0.000
       7 -> 15         0.26938
       8 -> 17         0.18370
       9 -> 19        -0.14924
       9 -> 20         0.12419
      10 -> 23         0.35245
      13 -> 29        -0.10099
      13 -> 30         0.39253

 Excited State  62:      Singlet-A     13.2341 eV   93.69 nm  f=0.0455  <S**2>=0.000
       7 -> 15         0.52198
       9 -> 19         0.27072
      10 -> 23        -0.11310
      11 -> 24        -0.25543
      12 -> 26         0.10088

 Excited State  63:      Singlet-A     13.2808 eV   93.36 nm  f=0.0472  <S**2>=0.000
       7 -> 15         0.18506
       9 -> 18         0.11096
      11 -> 24         0.48649
      11 -> 25        -0.22940
      12 -> 28         0.28812
      13 -> 30        -0.11822

 Excited State  64:      Singlet-A     13.3169 eV   93.10 nm  f=0.0015  <S**2>=0.000
       7 -> 15        -0.20045
       7 -> 16        -0.12635
       8 -> 17         0.14183
       8 -> 18         0.21247
       9 -> 18         0.10567
       9 -> 19         0.38166
       9 -> 20         0.32266
      12 -> 28        -0.21089
      13 -> 31        -0.13064

 Excited State  65:      Singlet-A     13.3882 eV   92.61 nm  f=0.0222  <S**2>=0.000
       7 -> 15         0.10224
       8 -> 18        -0.19348
       9 -> 20         0.56414
      10 -> 24         0.10351
      11 -> 25         0.22904

 Excited State  66:      Singlet-A     13.4332 eV   92.30 nm  f=0.0210  <S**2>=0.000
       8 -> 18         0.33285
      10 -> 24        -0.25247
      11 -> 25         0.26998
      12 -> 28         0.45178

 Excited State  67:      Singlet-A     13.5162 eV   91.73 nm  f=0.0087  <S**2>=0.000
       7 -> 16         0.39996
       8 -> 18         0.33954
       9 -> 18        -0.12165
       9 -> 20         0.11895
      11 -> 24        -0.12000
      11 -> 25        -0.36507

 Excited State  68:      Singlet-A     13.5925 eV   91.22 nm  f=0.0987  <S**2>=0.000
       7 -> 16         0.29003
       8 -> 18         0.19116
       8 -> 20        -0.12236
       9 -> 19        -0.12023
       9 -> 21        -0.16966
      10 -> 24        -0.21286
      11 -> 24         0.22906
      11 -> 25         0.27949
      12 -> 28        -0.26243

 Excited State  69:      Singlet-A     13.6622 eV   90.75 nm  f=0.0342  <S**2>=0.000
       7 -> 16         0.20626
       8 -> 19         0.16042
       8 -> 20        -0.14158
       9 -> 21         0.22015
      10 -> 24         0.36205
      10 -> 25         0.13531
      11 -> 25         0.23571
      12 -> 28         0.10431
      13 -> 31        -0.27799

 Excited State  70:      Singlet-A     13.6827 eV   90.61 nm  f=0.0095  <S**2>=0.000
       7 -> 16         0.27291
       8 -> 18        -0.19948
       8 -> 19        -0.11224
       9 -> 21         0.41386
      10 -> 24        -0.12412
      10 -> 25        -0.30534
      13 -> 31         0.20313

 Excited State  71:      Singlet-A     13.7195 eV   90.37 nm  f=0.0247  <S**2>=0.000
       7 -> 16         0.11891
       8 -> 18        -0.15071
       8 -> 19         0.37976
       8 -> 20         0.11063
       9 -> 21        -0.21445
      10 -> 24        -0.18680
      10 -> 25        -0.23425
      13 -> 31        -0.34203

 Excited State  72:      Singlet-A     13.8116 eV   89.77 nm  f=0.0219  <S**2>=0.000
       8 -> 18        -0.10589
       8 -> 19        -0.16614
       9 -> 21         0.18838
       9 -> 22         0.19098
      10 -> 24        -0.27013
      10 -> 25         0.40126
      11 -> 26         0.10186
      11 -> 27         0.13857
      13 -> 31        -0.26533
      13 -> 32        -0.11569

 Excited State  73:      Singlet-A     13.8362 eV   89.61 nm  f=0.0625  <S**2>=0.000
       7 -> 16        -0.21952
       7 -> 17        -0.21510
       8 -> 17        -0.11648
       8 -> 18         0.13667
       8 -> 19         0.24544
       9 -> 19        -0.14865
       9 -> 21         0.34558
      10 -> 25        -0.16440
      11 -> 26        -0.11439
      12 -> 28        -0.12733

 Excited State  74:      Singlet-A     13.8843 eV   89.30 nm  f=0.0495  <S**2>=0.000
       7 -> 17         0.15416
       8 -> 19         0.37178
       8 -> 20        -0.17519
       9 -> 22         0.24281
      10 -> 25         0.23048
      11 -> 26        -0.10804
      12 -> 29         0.11631
      13 -> 31         0.31274

 Excited State  75:      Singlet-A     13.9588 eV   88.82 nm  f=0.0066  <S**2>=0.000
       7 -> 17         0.10431
       8 -> 20         0.27327
      11 -> 26         0.11533
      13 -> 32         0.61219

 Excited State  76:      Singlet-A     14.0027 eV   88.54 nm  f=0.0731  <S**2>=0.000
       8 -> 19        -0.15542
       8 -> 20        -0.26149
       9 -> 22         0.49340
       9 -> 23        -0.16001
      10 -> 25        -0.17359
      11 -> 27        -0.10762
      13 -> 32         0.14086

 Excited State  77:      Singlet-A     14.0655 eV   88.15 nm  f=0.0655  <S**2>=0.000
       8 -> 20         0.43628
       9 -> 22         0.31328
      11 -> 27        -0.28167
      13 -> 32        -0.23522

 Excited State  78:      Singlet-A     14.1119 eV   87.86 nm  f=0.0070  <S**2>=0.000
       7 -> 17        -0.29212
       8 -> 20        -0.11610
      11 -> 26         0.54187
      11 -> 27        -0.15574
      12 -> 29         0.18128
      12 -> 30         0.13249

 Excited State  79:      Singlet-A     14.1445 eV   87.66 nm  f=0.0146  <S**2>=0.000
       7 -> 17        -0.16177
       8 -> 21         0.11646
      11 -> 26        -0.28404
      11 -> 27        -0.17645
      12 -> 29         0.56197

 Excited State  80:      Singlet-A     14.2514 eV   87.00 nm  f=0.0277  <S**2>=0.000
       7 -> 17         0.41263
       9 -> 23        -0.22020
      10 -> 26         0.27989
      11 -> 26         0.16127
      12 -> 29         0.25308
      13 -> 33         0.17251

 Excited State  81:      Singlet-A     14.2763 eV   86.85 nm  f=0.0765  <S**2>=0.000
       7 -> 17        -0.18565
       8 -> 20         0.12843
       8 -> 21         0.15863
       9 -> 22         0.12978
       9 -> 23         0.14023
      10 -> 24         0.10824
      10 -> 26         0.19917
      11 -> 27         0.47598
      13 -> 33         0.21048

 Excited State  82:      Singlet-A     14.3427 eV   86.44 nm  f=0.0213  <S**2>=0.000
       8 -> 21        -0.32879
       9 -> 23         0.45626
      10 -> 27        -0.22843
      13 -> 33         0.24380
      13 -> 34         0.11892

 Excited State  83:      Singlet-A     14.4020 eV   86.09 nm  f=0.0593  <S**2>=0.000
       7 -> 17         0.11363
       8 -> 21         0.47773
       9 -> 23         0.15724
      10 -> 26        -0.14109
      10 -> 27        -0.11677
      11 -> 27        -0.12820
      13 -> 33         0.27487
      13 -> 34        -0.14852

 Excited State  84:      Singlet-A     14.4063 eV   86.06 nm  f=0.0032  <S**2>=0.000
       8 -> 21        -0.11744
       8 -> 22         0.14833
      10 -> 26        -0.14497
      10 -> 27         0.49365
      13 -> 33         0.39325

 Excited State  85:      Singlet-A     14.4715 eV   85.67 nm  f=0.0868  <S**2>=0.000
       7 -> 18        -0.10869
       8 -> 22         0.18625
      10 -> 26         0.41124
      11 -> 27        -0.13713
      11 -> 28         0.17982
      12 -> 30        -0.24306
      13 -> 34        -0.30103

 Excited State  86:      Singlet-A     14.4871 eV   85.58 nm  f=0.0079  <S**2>=0.000
       8 -> 22         0.12903
      10 -> 26         0.26458
      10 -> 27         0.10216
      11 -> 27        -0.10585
      12 -> 29        -0.13500
      12 -> 30         0.41495
      13 -> 34         0.37324

 Excited State  87:      Singlet-A     14.5541 eV   85.19 nm  f=0.0201  <S**2>=0.000
       7 -> 18        -0.17170
       8 -> 21         0.12577
       8 -> 22        -0.15723
      11 -> 28         0.32210
      12 -> 30        -0.34930
      13 -> 34         0.40202

 Excited State  88:      Singlet-A     14.5989 eV   84.93 nm  f=0.0972  <S**2>=0.000
       7 -> 18         0.17108
       8 -> 22         0.52493
       9 -> 23        -0.15253
      10 -> 26        -0.11944
      10 -> 27        -0.24449
      13 -> 34         0.16620

 Excited State  89:      Singlet-A     14.6641 eV   84.55 nm  f=0.1826  <S**2>=0.000
       7 -> 17         0.11839
       7 -> 18        -0.17171
       7 -> 19         0.10411
       8 -> 22         0.27902
       9 -> 23         0.22356
       9 -> 24         0.17611
      10 -> 27         0.18896
      11 -> 28         0.17908
      13 -> 33        -0.18974
      13 -> 34        -0.11751
      13 -> 35         0.28269

 Excited State  90:      Singlet-A     14.7185 eV   84.24 nm  f=0.0414  <S**2>=0.000
       7 -> 18         0.45823
       9 -> 24         0.13534
      11 -> 28         0.40995
      12 -> 30         0.13929

 Excited State  91:      Singlet-A     14.7742 eV   83.92 nm  f=0.0297  <S**2>=0.000
       7 -> 18         0.22427
       9 -> 24        -0.42209
       9 -> 25        -0.10011
      13 -> 35         0.48310

 Excited State  92:      Singlet-A     14.8239 eV   83.64 nm  f=0.0468  <S**2>=0.000
       7 -> 18         0.10936
       7 -> 19        -0.11799
       9 -> 24         0.36713
       9 -> 25         0.10064
      10 -> 28         0.45056
      11 -> 28        -0.19097
      13 -> 35         0.18513

 Excited State  93:      Singlet-A     14.8837 eV   83.30 nm  f=0.0256  <S**2>=0.000
       8 -> 23         0.36708
       9 -> 24        -0.26337
      10 -> 28         0.44588
      13 -> 35        -0.17704
      13 -> 36         0.12004

 Excited State  94:      Singlet-A     14.9215 eV   83.09 nm  f=0.1271  <S**2>=0.000
       7 -> 18        -0.21269
       7 -> 19         0.14876
       8 -> 23         0.25937
       9 -> 23        -0.19060
       9 -> 24         0.14965
       9 -> 25        -0.13219
      10 -> 27        -0.17775
      11 -> 28         0.11276

 The electronic state is 1-A.
 Alpha  occ. eigenvalues --  -18.76521  -9.94144  -9.89206  -0.92923  -0.67537
 Alpha  occ. eigenvalues --   -0.56423  -0.45676  -0.41048  -0.38877  -0.34014
 Alpha  occ. eigenvalues --   -0.33045  -0.28413  -0.23084
 Alpha virt. eigenvalues --   -0.00522   0.02647   0.03977   0.05935   0.08286
 Alpha virt. eigenvalues --    0.09297   0.10009   0.11383   0.12401   0.13509
 Alpha virt. eigenvalues --    0.15263   0.16224   0.18666   0.18932   0.20499

 Mulliken charges:
               1
     1  C    0.332157
     2  C    0.247419
     3  O   -0.391627
     4  H    0.005902
     5  H   -0.037911
     6  H   -0.013888
     7  H   -0.111282
     8  H   -0.197207
     9  H    0.166435
 Sum of Mulliken charges =  -0.00000

 Dipole moment (field-independent basis, Debye):
    X=             -1.2453    Y=             -0.1668    Z=              1.0987  Tot=              1.6691
 Quadrupole moment (field-independent basis, Debye-Ang):
   XX=            -22.7118   YY=            -19.0568   ZZ=            -19.6410
   XY=             -0.9690   XZ=              1.6824   YZ=             -1.4716

 Normal termination of Gaussian 16 at Mon Mar 21 20:23:02 2022.
