 Gaussian 16, Revision C.01,
 Gaussian 16:  EM64L-G16RevC.01  3-Jul-2019

 ----------------------------------------------------------------------
 #P TD(Nstates=10000) pbepbe/Gen SCF(maxcycles=100) Int(Grid=ultrafine)
 ----------------------------------------------------------------------

 ---------------------
 xGDB7_00001_tier4.com
 ---------------------
 Symbolic Z-matrix:
 Charge =  0 Multiplicity = 1

                         Standard orientation:
 ---------------------------------------------------------------------
 Center     Atomic      Atomic             Coordinates (Angstroms)
 Number     Number       Type             X           Y           Z
 ---------------------------------------------------------------------
      1          6           0        0.630149   -0.000001   -0.000003
      2          9           0       -0.748512    0.000002    0.000001
      3          1           0        0.985250    0.897475   -0.509314
      4          1           0        0.985222   -0.889832   -0.522562
      5          1           0        0.985245   -0.007652    1.031883
 ---------------------------------------------------------------------

 SCF Done:  E(RPBE-PBE) =  -139.490720400     A.U. after   11 cycles

 Excitation energies and oscillator strengths:

 Excited State   1:      Singlet-A      8.3474 eV  148.53 nm  f=0.0192  <S**2>=0.000
       9 -> 10         0.70647
 This state for optimization and/or second-order correction.
 Total Energy, E(TD-HF/TD-DFT) =  -139.183959458
 Copying the excited state density for this state as the 1-particle RhoCI density.

 Excited State   2:      Singlet-A      8.3474 eV  148.53 nm  f=0.0192  <S**2>=0.000
       8 -> 10         0.70647

 Excited State   3:      Singlet-A      9.1496 eV  135.51 nm  f=0.0122  <S**2>=0.000
       9 -> 11         0.70587

 Excited State   4:      Singlet-A      9.1496 eV  135.51 nm  f=0.0122  <S**2>=0.000
       8 -> 11         0.70587

 Excited State   5:      Singlet-A     10.2677 eV  120.75 nm  f=0.0000  <S**2>=0.000
       8 -> 12         0.11549
       8 -> 13        -0.48593
       9 -> 12         0.48699
       9 -> 13         0.11561

 Excited State   6:      Singlet-A     10.2968 eV  120.41 nm  f=0.0288  <S**2>=0.000
       8 -> 12        -0.46277
       8 -> 13        -0.18185
       9 -> 12        -0.18158
       9 -> 13         0.46287

 Excited State   7:      Singlet-A     10.2968 eV  120.41 nm  f=0.0288  <S**2>=0.000
       8 -> 12        -0.18183
       8 -> 13         0.46332
       9 -> 12         0.46231
       9 -> 13         0.18159

 Excited State   8:      Singlet-A     10.5092 eV  117.98 nm  f=0.1013  <S**2>=0.000
       8 -> 12         0.47725
       8 -> 13         0.11337
       9 -> 12        -0.11336
       9 -> 13         0.47721

 Excited State   9:      Singlet-A     11.5212 eV  107.61 nm  f=0.0000  <S**2>=0.000
       8 -> 15         0.49925
       9 -> 16         0.49940

 Excited State  10:      Singlet-A     11.5559 eV  107.29 nm  f=0.0066  <S**2>=0.000
       8 -> 16        -0.12747
       9 -> 14         0.67854
       9 -> 15        -0.12655

 Excited State  11:      Singlet-A     11.5559 eV  107.29 nm  f=0.0066  <S**2>=0.000
       8 -> 14         0.67814
       8 -> 15         0.12894
       9 -> 16        -0.12722

 Excited State  12:      Singlet-A     11.7221 eV  105.77 nm  f=0.0046  <S**2>=0.000
       8 -> 16        -0.48187
       8 -> 17         0.11563
       9 -> 15         0.48218
       9 -> 18         0.11563

 Excited State  13:      Singlet-A     11.7957 eV  105.11 nm  f=0.0358  <S**2>=0.000
       6 -> 10        -0.16094
       8 -> 14         0.15444
       8 -> 15        -0.45594
       9 -> 16         0.45618

 Excited State  14:      Singlet-A     11.7957 eV  105.11 nm  f=0.0358  <S**2>=0.000
       7 -> 10        -0.16099
       8 -> 16         0.45636
       9 -> 14         0.15295
       9 -> 15         0.45625

 Excited State  15:      Singlet-A     12.0755 eV  102.67 nm  f=0.1580  <S**2>=0.000
       7 -> 10         0.68013
       9 -> 14         0.10754

 Excited State  16:      Singlet-A     12.0756 eV  102.67 nm  f=0.1580  <S**2>=0.000
       6 -> 10         0.68014
       8 -> 14         0.10781

 Excited State  17:      Singlet-A     12.4438 eV   99.64 nm  f=0.0000  <S**2>=0.000
       8 -> 18        -0.48683
       9 -> 17         0.51241

 Excited State  18:      Singlet-A     12.4455 eV   99.62 nm  f=0.0000  <S**2>=0.000
       8 -> 17         0.49069
       9 -> 18        -0.49065

 Excited State  19:      Singlet-A     12.4455 eV   99.62 nm  f=0.0000  <S**2>=0.000
       8 -> 18         0.50311
       9 -> 17         0.47790

 Excited State  20:      Singlet-A     12.4738 eV   99.40 nm  f=0.0014  <S**2>=0.000
       5 -> 10         0.66242
       5 -> 11         0.12959
       8 -> 17         0.13637
       9 -> 18         0.13637

 Excited State  21:      Singlet-A     12.8278 eV   96.65 nm  f=0.0008  <S**2>=0.000
       5 -> 10        -0.20437
       5 -> 11         0.29748
       6 -> 12        -0.10899
       7 -> 13        -0.10899
       8 -> 17         0.39942
       9 -> 18         0.39944

 Excited State  22:      Singlet-A     12.8897 eV   96.19 nm  f=0.0108  <S**2>=0.000
       7 -> 11         0.69561

 Excited State  23:      Singlet-A     12.8898 eV   96.19 nm  f=0.0108  <S**2>=0.000
       6 -> 11         0.69561

 Excited State  24:      Singlet-A     13.8127 eV   89.76 nm  f=0.3921  <S**2>=0.000
       5 -> 11         0.59175
       5 -> 14         0.16211
       5 -> 19        -0.10841
       8 -> 17        -0.18707
       9 -> 18        -0.18708

 Excited State  25:      Singlet-A     13.9104 eV   89.13 nm  f=0.0000  <S**2>=0.000
       6 -> 12         0.21859
       6 -> 13        -0.44938
       7 -> 12         0.44991
       7 -> 13         0.21873

 Excited State  26:      Singlet-A     13.9909 eV   88.62 nm  f=0.0441  <S**2>=0.000
       6 -> 12         0.48854
       7 -> 13        -0.48851

 Excited State  27:      Singlet-A     13.9909 eV   88.62 nm  f=0.0441  <S**2>=0.000
       6 -> 13         0.48876
       7 -> 12         0.48829

 Excited State  28:      Singlet-A     14.1672 eV   87.52 nm  f=0.0030  <S**2>=0.000
       5 -> 13        -0.18485
       9 -> 19         0.67040

 Excited State  29:      Singlet-A     14.1672 eV   87.52 nm  f=0.0030  <S**2>=0.000
       5 -> 12        -0.18491
       8 -> 19         0.67039

 Excited State  30:      Singlet-A     14.3376 eV   86.47 nm  f=0.0454  <S**2>=0.000
       5 -> 12         0.67537
       8 -> 19         0.18247

 Excited State  31:      Singlet-A     14.3377 eV   86.47 nm  f=0.0454  <S**2>=0.000
       5 -> 13         0.67538
       9 -> 19         0.18241

 Excited State  32:      Singlet-A     14.7428 eV   84.10 nm  f=0.0111  <S**2>=0.000
       6 -> 12         0.40697
       6 -> 13         0.19791
       7 -> 12        -0.19789
       7 -> 13         0.40694

 Excited State  33:      Singlet-A     15.0557 eV   82.35 nm  f=0.0161  <S**2>=0.000
       7 -> 14         0.19698
       9 -> 20         0.65571

 Excited State  34:      Singlet-A     15.0557 eV   82.35 nm  f=0.0161  <S**2>=0.000
       6 -> 14         0.19725
       8 -> 20         0.65572

 Excited State  35:      Singlet-A     15.1858 eV   81.64 nm  f=0.0000  <S**2>=0.000
       6 -> 15         0.49182
       7 -> 16         0.49213

 Excited State  36:      Singlet-A     15.2170 eV   81.48 nm  f=0.0003  <S**2>=0.000
       6 -> 16        -0.15305
       7 -> 14         0.64520
       7 -> 15        -0.15220
       9 -> 20        -0.14045

 Excited State  37:      Singlet-A     15.2171 eV   81.48 nm  f=0.0003  <S**2>=0.000
       6 -> 14         0.64466
       6 -> 15         0.15456
       7 -> 16        -0.15277
       8 -> 20        -0.14040

 Excited State  38:      Singlet-A     15.2997 eV   81.04 nm  f=0.0092  <S**2>=0.000
       5 -> 14         0.22711
       6 -> 16         0.45660
       7 -> 15        -0.45656

 Excited State  39:      Singlet-A     15.6253 eV   79.35 nm  f=0.0575  <S**2>=0.000
       5 -> 15         0.66867
       6 -> 16        -0.13776
       7 -> 15        -0.13778

 Excited State  40:      Singlet-A     15.6254 eV   79.35 nm  f=0.0575  <S**2>=0.000
       5 -> 16         0.66871
       6 -> 15        -0.13768
       7 -> 16         0.13766

 Excited State  41:      Singlet-A     15.6802 eV   79.07 nm  f=0.1679  <S**2>=0.000
       5 -> 16        -0.18758
       6 -> 14         0.14751
       6 -> 15        -0.27402
       6 -> 16         0.17129
       7 -> 15         0.17127
       7 -> 16         0.27425
       8 -> 20        -0.11881
       8 -> 22         0.28968
       9 -> 21         0.28976

 Excited State  42:      Singlet-A     15.6802 eV   79.07 nm  f=0.1678  <S**2>=0.000
       5 -> 15        -0.18772
       6 -> 15        -0.17124
       6 -> 16        -0.27426
       7 -> 14        -0.14650
       7 -> 15        -0.27442
       7 -> 16         0.17131
       8 -> 21        -0.28973
       9 -> 20         0.11879
       9 -> 22         0.28973

 Excited State  43:      Singlet-A     15.8473 eV   78.24 nm  f=0.0089  <S**2>=0.000
       5 -> 14         0.54125
       6 -> 16        -0.13360
       6 -> 17         0.16744
       7 -> 15         0.13359
       7 -> 18         0.16743
       8 -> 21         0.16833
       8 -> 22         0.11725
       9 -> 21        -0.11721
       9 -> 22         0.16830

 Excited State  44:      Singlet-A     15.8717 eV   78.12 nm  f=0.0000  <S**2>=0.000
       8 -> 21         0.28567
       8 -> 22        -0.41008
       9 -> 21         0.41043
       9 -> 22         0.28581

 Excited State  45:      Singlet-A     15.9090 eV   77.93 nm  f=0.0948  <S**2>=0.000
       6 -> 16         0.20486
       6 -> 17         0.18765
       7 -> 15         0.20500
       7 -> 18        -0.18767
       8 -> 21        -0.32035
       8 -> 22        -0.19154
       9 -> 20        -0.11026
       9 -> 21        -0.19148
       9 -> 22         0.32046

 Excited State  46:      Singlet-A     15.9090 eV   77.93 nm  f=0.0948  <S**2>=0.000
       6 -> 15         0.20471
       6 -> 18        -0.18759
       7 -> 16        -0.20486
       7 -> 17        -0.18771
       8 -> 20         0.11026
       8 -> 21        -0.19168
       8 -> 22         0.32063
       9 -> 21         0.32020
       9 -> 22         0.19134

 Excited State  47:      Singlet-A     16.0890 eV   77.06 nm  f=0.0000  <S**2>=0.000
       6 -> 17         0.10522
       6 -> 18        -0.48819
       7 -> 17         0.48902
       7 -> 18         0.10533

 Excited State  48:      Singlet-A     16.0978 eV   77.02 nm  f=0.3207  <S**2>=0.000
       5 -> 14        -0.24625
       5 -> 19        -0.13991
       8 -> 21         0.35497
       8 -> 22         0.24725
       9 -> 21        -0.24721
       9 -> 22         0.35495

 Excited State  49:      Singlet-A     16.1462 eV   76.79 nm  f=0.1080  <S**2>=0.000
       6 -> 15         0.12860
       6 -> 18         0.45022
       7 -> 16        -0.12871
       7 -> 17         0.44931

 Excited State  50:      Singlet-A     16.1463 eV   76.79 nm  f=0.1080  <S**2>=0.000
       6 -> 16        -0.12871
       6 -> 17         0.44978
       7 -> 15        -0.12881
       7 -> 18        -0.44974

 Excited State  51:      Singlet-A     16.2997 eV   76.07 nm  f=0.0000  <S**2>=0.000
       5 -> 18        -0.12008
       9 -> 23         0.69106

 Excited State  52:      Singlet-A     16.2997 eV   76.07 nm  f=0.0000  <S**2>=0.000
       5 -> 17        -0.12014
       8 -> 23         0.69105

 Excited State  53:      Singlet-A     16.3644 eV   75.76 nm  f=0.0823  <S**2>=0.000
       5 -> 14        -0.19857
       5 -> 19        -0.14223
       6 -> 17         0.43981
       7 -> 18         0.43980

 Excited State  54:      Singlet-A     16.4988 eV   75.15 nm  f=0.0156  <S**2>=0.000
       5 -> 17         0.68957
       8 -> 23         0.11544

 Excited State  55:      Singlet-A     16.4988 eV   75.15 nm  f=0.0156  <S**2>=0.000
       5 -> 18         0.68958
       9 -> 23         0.11538

 Excited State  56:      Singlet-A     16.9478 eV   73.16 nm  f=0.0090  <S**2>=0.000
       9 -> 24         0.70336

 Excited State  57:      Singlet-A     16.9478 eV   73.16 nm  f=0.0090  <S**2>=0.000
       8 -> 24         0.70337

 Excited State  58:      Singlet-A     17.1208 eV   72.42 nm  f=0.0000  <S**2>=0.000
       8 -> 25         0.48372
       8 -> 26        -0.12439
       9 -> 25         0.12444
       9 -> 26         0.48373

 Excited State  59:      Singlet-A     17.2919 eV   71.70 nm  f=0.0178  <S**2>=0.000
       8 -> 25         0.30135
       8 -> 26         0.36965
       9 -> 25         0.37022
       9 -> 26        -0.30154

 Excited State  60:      Singlet-A     17.2919 eV   71.70 nm  f=0.0178  <S**2>=0.000
       8 -> 25         0.37000
       8 -> 26        -0.30125
       9 -> 25        -0.30165
       9 -> 26        -0.36986

 Excited State  61:      Singlet-A     17.3287 eV   71.55 nm  f=0.0141  <S**2>=0.000
       4 -> 10         0.28932
       4 -> 11         0.11642
       5 -> 19         0.11778
       8 -> 25         0.10683
       8 -> 26         0.41563
       9 -> 25        -0.41484
       9 -> 26         0.10677

 Excited State  62:      Singlet-A     17.6866 eV   70.10 nm  f=0.0228  <S**2>=0.000
       4 -> 10         0.58905
       5 -> 19         0.17021
       5 -> 20         0.10913
       8 -> 26        -0.19050
       9 -> 25         0.19047

 Excited State  63:      Singlet-A     17.8241 eV   69.56 nm  f=0.0007  <S**2>=0.000
       7 -> 19         0.69382

 Excited State  64:      Singlet-A     17.8242 eV   69.56 nm  f=0.0007  <S**2>=0.000
       6 -> 19         0.69382

 Excited State  65:      Singlet-A     18.4409 eV   67.23 nm  f=0.0445  <S**2>=0.000
       4 -> 11         0.61004
       8 -> 27         0.18402
       9 -> 28        -0.18398

 Excited State  66:      Singlet-A     18.5871 eV   66.70 nm  f=0.0000  <S**2>=0.000
       8 -> 27        -0.22501
       8 -> 28         0.44558
       9 -> 27         0.44635
       9 -> 28         0.22495

 Excited State  67:      Singlet-A     18.6307 eV   66.55 nm  f=0.0215  <S**2>=0.000
       7 -> 20         0.40681
       8 -> 27         0.32179
       8 -> 28         0.24614
       9 -> 27        -0.24587
       9 -> 28         0.32250

 Excited State  68:      Singlet-A     18.6307 eV   66.55 nm  f=0.0215  <S**2>=0.000
       6 -> 20         0.40669
       8 -> 27         0.24686
       8 -> 28        -0.32213
       9 -> 27         0.32226
       9 -> 28         0.24523

 Excited State  69:      Singlet-A     18.6376 eV   66.52 nm  f=0.1010  <S**2>=0.000
       4 -> 11         0.22220
       5 -> 19         0.27226
       5 -> 20         0.14388
       8 -> 27        -0.35816
       8 -> 28        -0.18156
       9 -> 27        -0.18010
       9 -> 28         0.35872

 Excited State  70:      Singlet-A     18.7750 eV   66.04 nm  f=0.0588  <S**2>=0.000
       7 -> 20         0.54547
       8 -> 27        -0.23139
       8 -> 28        -0.16586
       9 -> 27         0.16575
       9 -> 28        -0.23137

 Excited State  71:      Singlet-A     18.7750 eV   66.04 nm  f=0.0588  <S**2>=0.000
       6 -> 20         0.54556
       8 -> 27        -0.16575
       8 -> 28         0.23138
       9 -> 27        -0.23124
       9 -> 28        -0.16575

 Excited State  72:      Singlet-A     18.9992 eV   65.26 nm  f=0.0348  <S**2>=0.000
       9 -> 29         0.69499

 Excited State  73:      Singlet-A     18.9993 eV   65.26 nm  f=0.0348  <S**2>=0.000
       8 -> 29         0.69500

 Excited State  74:      Singlet-A     19.0678 eV   65.02 nm  f=0.0004  <S**2>=0.000
       4 -> 10        -0.11545
       5 -> 19         0.16555
       5 -> 20         0.60812
       8 -> 27         0.12666
       9 -> 28        -0.12661

 Excited State  75:      Singlet-A     19.4945 eV   63.60 nm  f=0.0043  <S**2>=0.000
       4 -> 12         0.11753
       4 -> 13        -0.18075
       6 -> 21        -0.46746
       7 -> 22         0.46817

 Excited State  76:      Singlet-A     19.4946 eV   63.60 nm  f=0.0044  <S**2>=0.000
       4 -> 12         0.18079
       4 -> 13         0.11752
       6 -> 22         0.46717
       7 -> 21         0.46844

 Excited State  77:      Singlet-A     19.5135 eV   63.54 nm  f=0.0000  <S**2>=0.000
       6 -> 21         0.36864
       6 -> 22        -0.33901
       7 -> 21         0.33748
       7 -> 22         0.36776

 Excited State  78:      Singlet-A     19.5817 eV   63.32 nm  f=0.0121  <S**2>=0.000
       4 -> 12         0.61804
       6 -> 21         0.10055
       6 -> 22        -0.11405
       6 -> 23        -0.15732
       7 -> 21        -0.11405
       7 -> 22        -0.10042

 Excited State  79:      Singlet-A     19.5817 eV   63.32 nm  f=0.0121  <S**2>=0.000
       4 -> 13         0.61804
       6 -> 21        -0.11397
       6 -> 22        -0.10040
       7 -> 21        -0.10056
       7 -> 22         0.11407
       7 -> 23        -0.15736

 Excited State  80:      Singlet-A     19.6076 eV   63.23 nm  f=0.0005  <S**2>=0.000
       4 -> 11        -0.15268
       5 -> 19         0.28610
       5 -> 20        -0.20488
       6 -> 21        -0.23919
       6 -> 22        -0.26046
       6 -> 26        -0.13575
       7 -> 21         0.26024
       7 -> 22        -0.23910
       7 -> 25         0.13572

 Excited State  81:      Singlet-A     19.7913 eV   62.65 nm  f=0.1145  <S**2>=0.000
       4 -> 10        -0.10310
       5 -> 19         0.35495
       5 -> 20        -0.16946
       6 -> 21         0.21112
       6 -> 22         0.22982
       7 -> 21        -0.22969
       7 -> 22         0.21106
       8 -> 31        -0.18486
       9 -> 32        -0.18486

 Excited State  82:      Singlet-A     19.9115 eV   62.27 nm  f=0.0003  <S**2>=0.000
       5 -> 21        -0.14382
       5 -> 22         0.17613
       7 -> 23        -0.22621
       9 -> 30         0.62423

 Excited State  83:      Singlet-A     19.9115 eV   62.27 nm  f=0.0003  <S**2>=0.000
       5 -> 21         0.17650
       5 -> 22         0.14392
       6 -> 23        -0.22614
       8 -> 30         0.62413

 Excited State  84:      Singlet-A     19.9378 eV   62.19 nm  f=0.0322  <S**2>=0.000
       5 -> 21         0.63340
       5 -> 22         0.13304
       8 -> 30        -0.18114

 Excited State  85:      Singlet-A     19.9378 eV   62.19 nm  f=0.0322  <S**2>=0.000
       5 -> 21        -0.13314
       5 -> 22         0.63350
       9 -> 30        -0.18077

 Excited State  86:      Singlet-A     20.0761 eV   61.76 nm  f=0.1046  <S**2>=0.000
       4 -> 13         0.14270
       7 -> 23         0.62679
       9 -> 30         0.24763

 Excited State  87:      Singlet-A     20.0762 eV   61.76 nm  f=0.1046  <S**2>=0.000
       4 -> 12         0.14267
       6 -> 23         0.62681
       8 -> 30         0.24760

 Excited State  88:      Singlet-A     20.4064 eV   60.76 nm  f=0.0288  <S**2>=0.000
       4 -> 14         0.26784
       5 -> 23         0.64484

 Excited State  89:      Singlet-A     20.5843 eV   60.23 nm  f=0.0017  <S**2>=0.000
       4 -> 16        -0.18329
       7 -> 24         0.67933

 Excited State  90:      Singlet-A     20.5844 eV   60.23 nm  f=0.0017  <S**2>=0.000
       4 -> 15        -0.18337
       6 -> 24         0.67931

 Excited State  91:      Singlet-A     20.7585 eV   59.73 nm  f=0.0000  <S**2>=0.000
       6 -> 25         0.49582
       7 -> 26         0.49584

 Excited State  92:      Singlet-A     20.8094 eV   59.58 nm  f=0.0004  <S**2>=0.000
       4 -> 15         0.65018
       5 -> 25        -0.13698
       6 -> 24         0.16943

 Excited State  93:      Singlet-A     20.8095 eV   59.58 nm  f=0.0004  <S**2>=0.000
       4 -> 16         0.65021
       5 -> 26        -0.13697
       7 -> 24         0.16935

 Excited State  94:      Singlet-A     20.8461 eV   59.48 nm  f=0.0385  <S**2>=0.000
       4 -> 14         0.61421
       4 -> 19         0.11861
       5 -> 23        -0.21844
       6 -> 26         0.11614
       7 -> 25        -0.11611

 Excited State  95:      Singlet-A     21.0102 eV   59.01 nm  f=0.0000  <S**2>=0.000
       5 -> 24         0.70124

 Excited State  96:      Singlet-A     21.0584 eV   58.88 nm  f=0.0397  <S**2>=0.000
       5 -> 25         0.30837
       6 -> 25        -0.23255
       6 -> 26        -0.24647
       7 -> 25        -0.24651
       7 -> 26         0.23254
       8 -> 31         0.28257
       9 -> 32        -0.28258

 Excited State  97:      Singlet-A     21.0585 eV   58.88 nm  f=0.0398  <S**2>=0.000
       5 -> 26         0.30831
       6 -> 25        -0.24650
       6 -> 26         0.23253
       7 -> 25         0.23256
       7 -> 26         0.24646
       8 -> 32        -0.28255
       9 -> 31        -0.28269

 Excited State  98:      Singlet-A     21.1489 eV   58.62 nm  f=0.0000  <S**2>=0.000
       8 -> 31         0.20181
       8 -> 32        -0.45639
       9 -> 31         0.45645
       9 -> 32         0.20180

 Excited State  99:      Singlet-A     21.2363 eV   58.38 nm  f=0.0026  <S**2>=0.000
       4 -> 15         0.15675
       5 -> 25         0.51464
       8 -> 31        -0.31010
       9 -> 32         0.31008

 Excited State 100:      Singlet-A     21.2363 eV   58.38 nm  f=0.0026  <S**2>=0.000
       4 -> 16         0.15675
       5 -> 26         0.51470
       8 -> 32         0.31012
       9 -> 31         0.30996

 Excited State 101:      Singlet-A     21.3966 eV   57.95 nm  f=0.1702  <S**2>=0.000
       5 -> 26         0.33464
       6 -> 25         0.23903
       6 -> 26        -0.22780
       7 -> 25        -0.22824
       7 -> 26        -0.23901
       8 -> 32        -0.24685
       9 -> 31        -0.24674

 Excited State 102:      Singlet-A     21.3966 eV   57.95 nm  f=0.1702  <S**2>=0.000
       5 -> 25         0.33467
       6 -> 25         0.22801
       6 -> 26         0.23864
       7 -> 25         0.23940
       7 -> 26        -0.22803
       8 -> 31         0.24682
       9 -> 32        -0.24674

 Excited State 103:      Singlet-A     21.4096 eV   57.91 nm  f=0.0006  <S**2>=0.000
       4 -> 14        -0.12038
       4 -> 20        -0.10032
       5 -> 23         0.10078
       6 -> 26         0.38505
       6 -> 27        -0.23809
       7 -> 25        -0.38423
       7 -> 28         0.23817

 Excited State 104:      Singlet-A     21.5509 eV   57.53 nm  f=0.0103  <S**2>=0.000
       4 -> 17         0.69829

 The electronic state is 1-A.
 Alpha  occ. eigenvalues --  -24.26053  -9.97035  -1.08128  -0.62947  -0.44538
 Alpha  occ. eigenvalues --   -0.43138  -0.43137  -0.29755  -0.29755
 Alpha virt. eigenvalues --    0.00770   0.03152   0.07974   0.07974   0.12663
 Alpha virt. eigenvalues --    0.12731   0.12732   0.16032   0.16032   0.21819
 Alpha virt. eigenvalues --    0.25218   0.28573   0.28574   0.30174   0.32745

 Mulliken charges:
               1
     1  C    0.759652
     2  F   -0.456413
     3  H   -0.101067
     4  H   -0.101084
     5  H   -0.101088
 Sum of Mulliken charges =  -0.00000

 Dipole moment (field-independent basis, Debye):
    X=              1.7500    Y=             -0.0000    Z=              0.0000  Tot=              1.7500
 Quadrupole moment (field-independent basis, Debye-Ang):
   XX=            -12.8027   YY=            -12.0955   ZZ=            -12.0956
   XY=              0.0000   XZ=              0.0000   YZ=              0.0000

 Normal termination of Gaussian 16 at Mon Mar 21 20:12:24 2022.
