 Gaussian 16, Revision C.01,
 Gaussian 16:  EM64L-G16RevC.01  3-Jul-2019

 ----------------------------------------------------------------------
 #P TD(Nstates=10000) pbepbe/Gen SCF(maxcycles=100) Int(Grid=ultrafine)
 ----------------------------------------------------------------------

 ---------------------
 xGDB7_00001_tier4.com
 ---------------------
 Symbolic Z-matrix:
 Charge =  0 Multiplicity = 1

                         Standard orientation:
 ---------------------------------------------------------------------
 Center     Atomic      Atomic             Coordinates (Angstroms)
 Number     Number       Type             X           Y           Z
 ---------------------------------------------------------------------
      1          7           0        1.111035   -0.177046   -0.052467
      2          6           0       -0.122009    0.419593    0.001774
      3          7           0       -1.267607   -0.121443    0.008098
      4          1           0        1.920558    0.367802    0.180104
      5          1           0        1.180700   -1.165617    0.115308
      6          1           0       -0.065701    1.508813    0.004046
      7          1           0       -1.207497   -1.139126    0.000481
 ---------------------------------------------------------------------

 SCF Done:  E(RPBE-PBE) =  -149.727791058     A.U. after   14 cycles

 Excitation energies and oscillator strengths:

 Excited State   1:      Singlet-A      5.8233 eV  212.91 nm  f=0.0054  <S**2>=0.000
      11 -> 13         0.19056
      12 -> 13        -0.40655
      12 -> 14         0.54484
 This state for optimization and/or second-order correction.
 Total Energy, E(TD-HF/TD-DFT) =  -149.513789581
 Copying the excited state density for this state as the 1-particle RhoCI density.

 Excited State   2:      Singlet-A      5.9874 eV  207.08 nm  f=0.0047  <S**2>=0.000
      11 -> 13         0.45484
      11 -> 14        -0.38499
      12 -> 13        -0.19791
      12 -> 14        -0.32223

 Excited State   3:      Singlet-A      6.1155 eV  202.74 nm  f=0.0204  <S**2>=0.000
      11 -> 13         0.32858
      11 -> 14         0.58976
      12 -> 13        -0.10730
      12 -> 14        -0.17275

 Excited State   4:      Singlet-A      6.6478 eV  186.50 nm  f=0.0092  <S**2>=0.000
      11 -> 15         0.10238
      12 -> 15         0.69187

 Excited State   5:      Singlet-A      6.8540 eV  180.89 nm  f=0.0593  <S**2>=0.000
      11 -> 13        -0.11620
      11 -> 15         0.64828
      12 -> 13        -0.18391
      12 -> 15        -0.12915

 Excited State   6:      Singlet-A      7.0662 eV  175.46 nm  f=0.2369  <S**2>=0.000
      11 -> 13         0.32600
      11 -> 15         0.23683
      11 -> 16         0.17189
      12 -> 13         0.43023
      12 -> 14         0.21052
      12 -> 16        -0.21472

 Excited State   7:      Singlet-A      7.3476 eV  168.74 nm  f=0.0389  <S**2>=0.000
      11 -> 16         0.19720
      12 -> 13         0.11826
      12 -> 16         0.65624

 Excited State   8:      Singlet-A      7.5410 eV  164.41 nm  f=0.0483  <S**2>=0.000
      11 -> 16         0.65478
      12 -> 13        -0.14404
      12 -> 16        -0.13961

 Excited State   9:      Singlet-A      8.3782 eV  147.99 nm  f=0.0051  <S**2>=0.000
      12 -> 17         0.70334

 Excited State  10:      Singlet-A      8.5453 eV  145.09 nm  f=0.0129  <S**2>=0.000
      11 -> 17         0.70435

 Excited State  11:      Singlet-A      8.8672 eV  139.82 nm  f=0.0007  <S**2>=0.000
      11 -> 18         0.11802
      12 -> 18         0.69215

 Excited State  12:      Singlet-A      9.1131 eV  136.05 nm  f=0.0024  <S**2>=0.000
      10 -> 14        -0.10990
      11 -> 18         0.68091
      12 -> 18        -0.12202

 Excited State  13:      Singlet-A      9.1837 eV  135.00 nm  f=0.0489  <S**2>=0.000
      10 -> 13        -0.24826
      10 -> 14         0.64910
      11 -> 18         0.11259

 Excited State  14:      Singlet-A      9.5936 eV  129.24 nm  f=0.0204  <S**2>=0.000
      11 -> 19        -0.28272
      11 -> 20         0.10650
      12 -> 19         0.61786
      12 -> 20         0.12266

 Excited State  15:      Singlet-A      9.7131 eV  127.65 nm  f=0.0023  <S**2>=0.000
      10 -> 13        -0.12425
      11 -> 19         0.60605
      11 -> 20         0.16340
      12 -> 19         0.22358
      12 -> 21         0.11643

 Excited State  16:      Singlet-A      9.7149 eV  127.62 nm  f=0.0063  <S**2>=0.000
       9 -> 13        -0.14839
      11 -> 19         0.12514
      12 -> 20         0.66990

 Excited State  17:      Singlet-A      9.8197 eV  126.26 nm  f=0.0023  <S**2>=0.000
       9 -> 13         0.62681
       9 -> 14        -0.14859
      10 -> 15        -0.20696
      12 -> 20         0.16070

 Excited State  18:      Singlet-A      9.9178 eV  125.01 nm  f=0.0260  <S**2>=0.000
      10 -> 15        -0.10587
      11 -> 20         0.66551
      12 -> 19        -0.12279

 Excited State  19:      Singlet-A      9.9251 eV  124.92 nm  f=0.0035  <S**2>=0.000
       9 -> 14        -0.41212
      10 -> 13        -0.19913
      10 -> 15         0.48237
      11 -> 19        -0.11857
      11 -> 20         0.11395
      12 -> 19        -0.12233

 Excited State  20:      Singlet-A     10.0204 eV  123.73 nm  f=0.0003  <S**2>=0.000
       9 -> 13         0.26008
       9 -> 14         0.46776
      10 -> 15         0.44182

 Excited State  21:      Singlet-A     10.2492 eV  120.97 nm  f=0.0643  <S**2>=0.000
       9 -> 14        -0.23876
      10 -> 13         0.46424
      10 -> 14         0.17214
      10 -> 15         0.12032
      12 -> 19         0.12236
      12 -> 21        -0.34454

 Excited State  22:      Singlet-A     10.4356 eV  118.81 nm  f=0.0287  <S**2>=0.000
      10 -> 13        -0.18582
      10 -> 16         0.11614
      11 -> 21         0.53177
      12 -> 21        -0.37045

 Excited State  23:      Singlet-A     10.6109 eV  116.85 nm  f=0.0283  <S**2>=0.000
      10 -> 16         0.59142
      11 -> 21        -0.29534
      12 -> 21        -0.20147

 Excited State  24:      Singlet-A     10.6769 eV  116.12 nm  f=0.1007  <S**2>=0.000
      10 -> 13         0.24301
      10 -> 16         0.34480
      11 -> 21         0.30942
      12 -> 21         0.37156
      12 -> 22         0.13896

 Excited State  25:      Singlet-A     10.7922 eV  114.88 nm  f=0.0102  <S**2>=0.000
       9 -> 15         0.24334
      12 -> 22         0.63841
      12 -> 23         0.12440

 Excited State  26:      Singlet-A     10.8891 eV  113.86 nm  f=0.0764  <S**2>=0.000
       9 -> 15         0.58556
      11 -> 22        -0.29179
      12 -> 22        -0.20651

 Excited State  27:      Singlet-A     11.0379 eV  112.33 nm  f=0.1159  <S**2>=0.000
       9 -> 15         0.27253
      11 -> 22         0.55175
      11 -> 23         0.20727
      12 -> 23        -0.24125

 Excited State  28:      Singlet-A     11.1081 eV  111.62 nm  f=0.0704  <S**2>=0.000
      11 -> 22         0.17791
      11 -> 23         0.11605
      12 -> 22        -0.13566
      12 -> 23         0.63937

 Excited State  29:      Singlet-A     11.3022 eV  109.70 nm  f=0.0539  <S**2>=0.000
       9 -> 16        -0.20506
      11 -> 22        -0.18958
      11 -> 23         0.61604
      12 -> 24         0.16617

 Excited State  30:      Singlet-A     11.5051 eV  107.76 nm  f=0.0613  <S**2>=0.000
       9 -> 16         0.63191
      11 -> 23         0.11515
      12 -> 24         0.27496

 Excited State  31:      Singlet-A     11.6803 eV  106.15 nm  f=0.0046  <S**2>=0.000
      10 -> 17         0.70376

 Excited State  32:      Singlet-A     11.7397 eV  105.61 nm  f=0.0210  <S**2>=0.000
       9 -> 16         0.10848
      11 -> 24         0.59973
      12 -> 24        -0.32982

 Excited State  33:      Singlet-A     11.9011 eV  104.18 nm  f=0.0443  <S**2>=0.000
       9 -> 16        -0.17093
      10 -> 19         0.15760
      11 -> 22         0.10863
      11 -> 23        -0.14854
      11 -> 24         0.36231
      12 -> 24         0.49785

 Excited State  34:      Singlet-A     12.2498 eV  101.21 nm  f=0.0500  <S**2>=0.000
      10 -> 18         0.67255
      12 -> 25         0.14592

 Excited State  35:      Singlet-A     12.4009 eV   99.98 nm  f=0.0396  <S**2>=0.000
       8 -> 13         0.12705
      10 -> 18        -0.15264
      12 -> 25         0.65495

 Excited State  36:      Singlet-A     12.4886 eV   99.28 nm  f=0.0316  <S**2>=0.000
       8 -> 13         0.50047
       9 -> 17        -0.40825
      11 -> 25        -0.22743
      12 -> 25        -0.12523

 Excited State  37:      Singlet-A     12.5363 eV   98.90 nm  f=0.0451  <S**2>=0.000
       8 -> 13         0.42087
       9 -> 17         0.53261
      12 -> 26        -0.11564

 Excited State  38:      Singlet-A     12.6351 eV   98.13 nm  f=0.0307  <S**2>=0.000
       8 -> 13         0.17600
       8 -> 14         0.15478
      11 -> 25         0.39231
      12 -> 25        -0.10843
      12 -> 26         0.49377

 Excited State  39:      Singlet-A     12.6957 eV   97.66 nm  f=0.0337  <S**2>=0.000
       8 -> 14         0.52314
       9 -> 17        -0.11133
      11 -> 25         0.24541
      12 -> 26        -0.36315

 Excited State  40:      Singlet-A     12.7520 eV   97.23 nm  f=0.1454  <S**2>=0.000
       8 -> 14        -0.36080
      10 -> 19         0.11205
      11 -> 25         0.38079
      11 -> 26        -0.29196
      12 -> 26        -0.30353

 Excited State  41:      Singlet-A     12.8554 eV   96.45 nm  f=0.0206  <S**2>=0.000
       8 -> 14        -0.15481
       9 -> 18        -0.25522
      10 -> 19         0.19490
      11 -> 25         0.13995
      11 -> 26         0.55280
      11 -> 27         0.15648

 Excited State  42:      Singlet-A     12.9811 eV   95.51 nm  f=0.0502  <S**2>=0.000
       9 -> 18         0.61614
      10 -> 19        -0.11105
      11 -> 25         0.10343
      11 -> 26         0.21493
      11 -> 27         0.10874

 Excited State  43:      Singlet-A     13.0383 eV   95.09 nm  f=0.0293  <S**2>=0.000
       8 -> 14         0.10835
       9 -> 18         0.11180
      10 -> 19         0.36054
      10 -> 20         0.51408
      11 -> 27        -0.11694
      12 -> 27        -0.17061

 Excited State  44:      Singlet-A     13.1441 eV   94.33 nm  f=0.0015  <S**2>=0.000
       7 -> 13         0.24553
       9 -> 18         0.15027
      10 -> 19         0.40958
      10 -> 20        -0.30614
      11 -> 27         0.11312
      12 -> 27         0.27766

 Excited State  45:      Singlet-A     13.1984 eV   93.94 nm  f=0.0184  <S**2>=0.000
       7 -> 13         0.52922
       7 -> 14         0.16353
      10 -> 19        -0.19974
      10 -> 20         0.24054
      11 -> 27         0.13309
      12 -> 27         0.20619

 Excited State  46:      Singlet-A     13.3094 eV   93.16 nm  f=0.0615  <S**2>=0.000
       7 -> 13        -0.36226
       9 -> 19        -0.14771
      10 -> 20         0.21604
      11 -> 27         0.21005
      12 -> 27         0.47596

 Excited State  47:      Singlet-A     13.4647 eV   92.08 nm  f=0.0320  <S**2>=0.000
       7 -> 14        -0.10341
       8 -> 15         0.55601
      10 -> 21         0.20906
      11 -> 27        -0.33482

 Excited State  48:      Singlet-A     13.5941 eV   91.20 nm  f=0.0870  <S**2>=0.000
       7 -> 14         0.53755
       7 -> 15         0.10602
       8 -> 15         0.11539
       9 -> 19         0.37773
      10 -> 21        -0.11749

 Excited State  49:      Singlet-A     13.6084 eV   91.11 nm  f=0.0377  <S**2>=0.000
       7 -> 14        -0.18605
       8 -> 15        -0.20958
       9 -> 19         0.48442
      10 -> 20         0.10470
      10 -> 21         0.35493
      12 -> 27         0.11211

 Excited State  50:      Singlet-A     13.6633 eV   90.74 nm  f=0.1250  <S**2>=0.000
       7 -> 14         0.30439
       8 -> 15        -0.23439
       9 -> 19        -0.28190
       9 -> 20         0.13642
      10 -> 21         0.42007
      11 -> 27        -0.19852

 Excited State  51:      Singlet-A     13.8216 eV   89.70 nm  f=0.0132  <S**2>=0.000
       8 -> 15         0.19895
       8 -> 16         0.33406
       9 -> 20         0.10654
      10 -> 21         0.29776
      11 -> 26        -0.10348
      11 -> 27         0.35862
      12 -> 27        -0.17986

 Excited State  52:      Singlet-A     13.9280 eV   89.02 nm  f=0.0430  <S**2>=0.000
       7 -> 15        -0.19481
       9 -> 20         0.63816

 Excited State  53:      Singlet-A     14.1146 eV   87.84 nm  f=0.0052  <S**2>=0.000
      10 -> 22         0.68769
      10 -> 23         0.10716

 Excited State  54:      Singlet-A     14.2169 eV   87.21 nm  f=0.0389  <S**2>=0.000
       8 -> 16        -0.14994
      10 -> 23         0.10438
      11 -> 29         0.13802
      12 -> 28         0.66105

 Excited State  55:      Singlet-A     14.2680 eV   86.90 nm  f=0.0495  <S**2>=0.000
       7 -> 15        -0.11126
       8 -> 16         0.32780
       9 -> 21         0.25366
      10 -> 23        -0.16991
      11 -> 28         0.21221
      12 -> 29         0.45022

 Excited State  56:      Singlet-A     14.2843 eV   86.80 nm  f=0.0051  <S**2>=0.000
       9 -> 21         0.63100
      11 -> 28        -0.12282
      12 -> 29        -0.25090

 Excited State  57:      Singlet-A     14.3381 eV   86.47 nm  f=0.0689  <S**2>=0.000
       7 -> 15        -0.13946
       8 -> 16         0.41836
       8 -> 17        -0.10642
      10 -> 23         0.26435
      11 -> 27        -0.13789
      12 -> 29        -0.34662

 Excited State  58:      Singlet-A     14.3647 eV   86.31 nm  f=0.0010  <S**2>=0.000
       8 -> 16        -0.13129
      10 -> 23         0.31806
      11 -> 28         0.52765
      11 -> 29        -0.24436

 Excited State  59:      Singlet-A     14.4171 eV   86.00 nm  f=0.0025  <S**2>=0.000
       9 -> 21         0.13845
      10 -> 23         0.50698
      11 -> 28        -0.28000
      11 -> 29         0.11947
      12 -> 28        -0.13813
      12 -> 29         0.29512

 Excited State  60:      Singlet-A     14.4314 eV   85.91 nm  f=0.0809  <S**2>=0.000
       7 -> 15         0.54986
       8 -> 16         0.10044
       9 -> 20         0.11895
      11 -> 30         0.16032
      12 -> 30        -0.20713

 Excited State  61:      Singlet-A     14.5463 eV   85.23 nm  f=0.0200  <S**2>=0.000
       7 -> 15         0.16812
      11 -> 28         0.14346
      11 -> 29         0.37142
      12 -> 30         0.50355
      12 -> 32         0.13430

 Excited State  62:      Singlet-A     14.5762 eV   85.06 nm  f=0.0054  <S**2>=0.000
      11 -> 28         0.14325
      11 -> 29         0.42845
      11 -> 30        -0.26468
      12 -> 30        -0.42407

 Excited State  63:      Singlet-A     14.7666 eV   83.96 nm  f=0.0304  <S**2>=0.000
       7 -> 16        -0.16473
       9 -> 23         0.10270
      11 -> 29         0.15518
      11 -> 30         0.57910
      12 -> 32         0.19258

 Excited State  64:      Singlet-A     14.8903 eV   83.26 nm  f=0.0121  <S**2>=0.000
       7 -> 16         0.52415
       9 -> 22         0.19278
      10 -> 24        -0.15438
      12 -> 31         0.37690

 Excited State  65:      Singlet-A     14.9093 eV   83.16 nm  f=0.0132  <S**2>=0.000
       7 -> 16        -0.31156
      10 -> 24         0.10512
      11 -> 31         0.11266
      11 -> 32         0.10219
      12 -> 31         0.47321
      12 -> 32        -0.35057

 Excited State  66:      Singlet-A     14.9525 eV   82.92 nm  f=0.0482  <S**2>=0.000
       7 -> 16        -0.22178
       8 -> 17         0.11488
       9 -> 22         0.53337
      10 -> 24        -0.34243

 Excited State  67:      Singlet-A     14.9852 eV   82.74 nm  f=0.0273  <S**2>=0.000
       7 -> 16         0.10938
       9 -> 23         0.17562
      10 -> 24        -0.11244
      11 -> 29         0.11488
      11 -> 30         0.11819
      11 -> 31         0.38835
      11 -> 32         0.25150
      12 -> 31        -0.26098
      12 -> 32        -0.32393

 Excited State  68:      Singlet-A     15.0707 eV   82.27 nm  f=0.0339  <S**2>=0.000
       9 -> 22         0.11390
      10 -> 24         0.21071
      11 -> 31        -0.29164
      11 -> 32         0.56785

 Excited State  69:      Singlet-A     15.0969 eV   82.13 nm  f=0.0534  <S**2>=0.000
       6 -> 14        -0.17762
       9 -> 22         0.15736
      10 -> 24         0.27327
      11 -> 31         0.46549
      12 -> 32         0.33877

 Excited State  70:      Singlet-A     15.1360 eV   81.91 nm  f=0.0094  <S**2>=0.000
       6 -> 14        -0.14045
       8 -> 17         0.29563
       9 -> 23         0.58365
      10 -> 24         0.13262

 Excited State  71:      Singlet-A     15.2646 eV   81.22 nm  f=0.0488  <S**2>=0.000
       7 -> 16         0.11254
       8 -> 17         0.13953
       8 -> 18         0.20533
       9 -> 22         0.27431
       9 -> 23        -0.12638
      10 -> 24         0.34954
      11 -> 30         0.10161
      11 -> 32        -0.22283
      12 -> 32        -0.21126

 Excited State  72:      Singlet-A     15.3765 eV   80.63 nm  f=0.0189  <S**2>=0.000
       6 -> 13         0.26091
       6 -> 14        -0.30396
       6 -> 15        -0.12450
       8 -> 17         0.40725
       9 -> 23        -0.25274
      10 -> 24        -0.13668

 Excited State  73:      Singlet-A     15.5027 eV   79.98 nm  f=0.0873  <S**2>=0.000
       6 -> 13        -0.24755
       6 -> 14         0.38504
       6 -> 15        -0.19044
       7 -> 17         0.18557
       8 -> 17         0.34043
      11 -> 33         0.12478
      12 -> 32         0.10146

 Excited State  74:      Singlet-A     15.5455 eV   79.76 nm  f=0.0160  <S**2>=0.000
       8 -> 18         0.16122
       9 -> 24         0.10049
      12 -> 33         0.65847

 Excited State  75:      Singlet-A     15.6144 eV   79.40 nm  f=0.0000  <S**2>=0.000
       6 -> 13        -0.29880
       6 -> 14        -0.25980
       9 -> 24         0.55679

 Excited State  76:      Singlet-A     15.6949 eV   79.00 nm  f=0.0145  <S**2>=0.000
       8 -> 18        -0.10600
       9 -> 24        -0.10732
      10 -> 25         0.48984
      11 -> 33         0.36949
      12 -> 34        -0.28580

 Excited State  77:      Singlet-A     15.7144 eV   78.90 nm  f=0.0074  <S**2>=0.000
       6 -> 13        -0.15628
       6 -> 14        -0.16604
       8 -> 18         0.29893
       9 -> 24        -0.13247
      10 -> 25         0.41405
      11 -> 33        -0.23411
      12 -> 34         0.30964

 Excited State  78:      Singlet-A     15.7734 eV   78.60 nm  f=0.0689  <S**2>=0.000
       8 -> 18         0.19826
      10 -> 25        -0.13460
      11 -> 33         0.47190
      11 -> 34        -0.10232
      12 -> 34         0.39926

 Excited State  79:      Singlet-A     15.8120 eV   78.41 nm  f=0.0703  <S**2>=0.000
       6 -> 13         0.28001
       6 -> 14         0.14414
       8 -> 18         0.33894
       9 -> 24         0.29526
      10 -> 26        -0.14936
      10 -> 27         0.10051
      11 -> 34        -0.21131
      12 -> 33        -0.14957
      12 -> 34        -0.16990

 Excited State  80:      Singlet-A     15.8665 eV   78.14 nm  f=0.0829  <S**2>=0.000
       6 -> 13        -0.16561
       6 -> 14        -0.13659
       7 -> 17        -0.13338
       8 -> 18         0.32335
       9 -> 24        -0.12735
      10 -> 25        -0.17934
      10 -> 26        -0.11461
      11 -> 33         0.11424
      11 -> 34         0.34094
      12 -> 34        -0.28279

 Excited State  81:      Singlet-A     15.9215 eV   77.87 nm  f=0.0922  <S**2>=0.000
       6 -> 13         0.19445
       6 -> 14         0.12662
       7 -> 17        -0.22398
       8 -> 18        -0.11642
       9 -> 24         0.17548
      10 -> 25         0.12582
      10 -> 27         0.10999
      11 -> 34         0.50125
      12 -> 34         0.17595

 Excited State  82:      Singlet-A     16.0149 eV   77.42 nm  f=0.0362  <S**2>=0.000
       8 -> 18         0.12275
      10 -> 26         0.65137

 Excited State  83:      Singlet-A     16.1821 eV   76.62 nm  f=0.0525  <S**2>=0.000
       6 -> 15         0.41560
       7 -> 17         0.44318
       7 -> 18        -0.16751
       9 -> 25         0.10321
      11 -> 34         0.20787

 Excited State  84:      Singlet-A     16.2926 eV   76.10 nm  f=0.0053  <S**2>=0.000
       8 -> 19         0.70075

 Excited State  85:      Singlet-A     16.4130 eV   75.54 nm  f=0.0281  <S**2>=0.000
       6 -> 15        -0.34314
       7 -> 17         0.20760
       8 -> 17        -0.10292
       8 -> 20         0.51952

 Excited State  86:      Singlet-A     16.5449 eV   74.94 nm  f=0.0105  <S**2>=0.000
       7 -> 17         0.11638
       7 -> 18         0.38068
       9 -> 25        -0.30345
       9 -> 26         0.16227
      10 -> 27         0.42560

 Excited State  87:      Singlet-A     16.5864 eV   74.75 nm  f=0.0530  <S**2>=0.000
       6 -> 15         0.22312
       6 -> 16        -0.17769
       7 -> 18         0.44945
       8 -> 20         0.25611
      10 -> 27        -0.28837

 Excited State  88:      Singlet-A     16.6485 eV   74.47 nm  f=0.0751  <S**2>=0.000
       6 -> 13        -0.12546
       7 -> 17        -0.16282
       9 -> 25         0.36466
       9 -> 26        -0.33799
      10 -> 27         0.36788

 Excited State  89:      Singlet-A     16.6648 eV   74.40 nm  f=0.0035  <S**2>=0.000
       6 -> 16         0.11063
       7 -> 17         0.12724
       7 -> 18         0.15208
       8 -> 20        -0.19422
       9 -> 26        -0.35065
      10 -> 27        -0.10602
      12 -> 35         0.48181

 Excited State  90:      Singlet-A     16.6961 eV   74.26 nm  f=0.0508  <S**2>=0.000
       6 -> 15         0.13475
       7 -> 17        -0.15286
       7 -> 18        -0.13742
       8 -> 20         0.20211
       9 -> 26         0.33097
      10 -> 27         0.12045
      12 -> 35         0.47019

 Excited State  91:      Singlet-A     16.8686 eV   73.50 nm  f=0.0042  <S**2>=0.000
       8 -> 21         0.11318
      11 -> 35         0.64308
      12 -> 36        -0.13490

 Excited State  92:      Singlet-A     16.9072 eV   73.33 nm  f=0.0707  <S**2>=0.000
       6 -> 16         0.45860
       7 -> 18         0.17021
       7 -> 19        -0.13381

 The electronic state is 1-A.
 Alpha  occ. eigenvalues --  -14.02407 -13.95881  -9.95960  -0.86171  -0.77025
 Alpha  occ. eigenvalues --   -0.56283  -0.49373  -0.46475  -0.36561  -0.33763
 Alpha  occ. eigenvalues --   -0.22227  -0.21607
 Alpha virt. eigenvalues --   -0.01274  -0.00189   0.02746   0.05131   0.09019
 Alpha virt. eigenvalues --    0.10907   0.13367   0.14135   0.15974   0.18051
 Alpha virt. eigenvalues --    0.18858   0.21099   0.23908   0.24880   0.26500

 Mulliken charges:
               1
     1  N    0.136459
     2  C    0.670416
     3  N   -0.154217
     4  H   -0.098421
     5  H   -0.125535
     6  H   -0.372879
     7  H   -0.055824
 Sum of Mulliken charges =   0.00000

 Dipole moment (field-independent basis, Debye):
    X=              3.3895    Y=             -0.7746    Z=              0.5400  Tot=              3.5186
 Quadrupole moment (field-independent basis, Debye-Ang):
   XX=            -20.6997   YY=            -15.0618   ZZ=            -20.6923
   XY=              1.2121   XZ=              1.1043   YZ=             -0.1523

 Normal termination of Gaussian 16 at Mon Mar 21 20:18:09 2022.
