 Gaussian 16, Revision C.01,
 Gaussian 16:  EM64L-G16RevC.01  3-Jul-2019

 ----------------------------------------------------------------------
 #P TD(Nstates=10000) pbepbe/Gen SCF(maxcycles=100) Int(Grid=ultrafine)
 ----------------------------------------------------------------------

 ---------------------
 xGDB7_00001_tier4.com
 ---------------------
 Symbolic Z-matrix:
 Charge =  0 Multiplicity = 1

                         Standard orientation:
 ---------------------------------------------------------------------
 Center     Atomic      Atomic             Coordinates (Angstroms)
 Number     Number       Type             X           Y           Z
 ---------------------------------------------------------------------
      1          7           0        1.106441    0.142513   -0.090982
      2          7           0       -0.080753   -0.512520    0.006066
      3          6           0       -1.148696    0.167456    0.008166
      4          1           0        1.854749   -0.409916    0.291533
      5          1           0        1.109676    1.100453    0.242713
      6          1           0       -2.089851   -0.366199    0.035249
      7          1           0       -1.162209    1.260974   -0.024080
 ---------------------------------------------------------------------

 SCF Done:  E(RPBE-PBE) =  -149.685509063     A.U. after   13 cycles

 Excitation energies and oscillator strengths:

 Excited State   1:      Singlet-A      5.6471 eV  219.55 nm  f=0.0292  <S**2>=0.000
      11 -> 13         0.60432
      12 -> 13         0.34256
      12 -> 14         0.10238
 This state for optimization and/or second-order correction.
 Total Energy, E(TD-HF/TD-DFT) =  -149.477981625
 Copying the excited state density for this state as the 1-particle RhoCI density.

 Excited State   2:      Singlet-A      5.7759 eV  214.66 nm  f=0.0809  <S**2>=0.000
      11 -> 13        -0.33743
      12 -> 13         0.45653
      12 -> 14         0.41063

 Excited State   3:      Singlet-A      6.0770 eV  204.02 nm  f=0.0884  <S**2>=0.000
      11 -> 13         0.13565
      12 -> 13        -0.38085
      12 -> 14         0.56311

 Excited State   4:      Singlet-A      6.6869 eV  185.41 nm  f=0.0455  <S**2>=0.000
      11 -> 14         0.70133

 Excited State   5:      Singlet-A      6.7965 eV  182.42 nm  f=0.0253  <S**2>=0.000
      12 -> 15         0.70439

 Excited State   6:      Singlet-A      7.4342 eV  166.77 nm  f=0.0138  <S**2>=0.000
      11 -> 15         0.59525
      12 -> 16        -0.37638

 Excited State   7:      Singlet-A      7.4689 eV  166.00 nm  f=0.0279  <S**2>=0.000
      11 -> 15         0.36895
      12 -> 16         0.59499

 Excited State   8:      Singlet-A      8.1754 eV  151.65 nm  f=0.0990  <S**2>=0.000
      11 -> 16         0.69815

 Excited State   9:      Singlet-A      8.2705 eV  149.91 nm  f=0.0101  <S**2>=0.000
      12 -> 17         0.70243

 Excited State  10:      Singlet-A      8.5632 eV  144.79 nm  f=0.0070  <S**2>=0.000
      12 -> 18         0.69933

 Excited State  11:      Singlet-A      8.9868 eV  137.96 nm  f=0.0459  <S**2>=0.000
      10 -> 13         0.11435
      11 -> 17         0.65538
      12 -> 19         0.20667

 Excited State  12:      Singlet-A      9.0252 eV  137.38 nm  f=0.0149  <S**2>=0.000
       9 -> 13         0.10193
      11 -> 17        -0.21561
      12 -> 19         0.65153

 Excited State  13:      Singlet-A      9.2158 eV  134.53 nm  f=0.0403  <S**2>=0.000
       9 -> 13        -0.23376
      10 -> 13        -0.14086
      11 -> 18         0.64400

 Excited State  14:      Singlet-A      9.2391 eV  134.20 nm  f=0.0419  <S**2>=0.000
       9 -> 13         0.57368
      10 -> 13         0.25738
      11 -> 18         0.28082
      12 -> 19        -0.12076

 Excited State  15:      Singlet-A      9.6556 eV  128.41 nm  f=0.0224  <S**2>=0.000
      10 -> 13         0.12551
      10 -> 14         0.10181
      11 -> 19         0.67565

 Excited State  16:      Singlet-A      9.7941 eV  126.59 nm  f=0.0517  <S**2>=0.000
       9 -> 13        -0.20397
      10 -> 13         0.31028
      10 -> 14         0.54060
      11 -> 19        -0.16327
      12 -> 20         0.10064
      12 -> 21         0.10798

 Excited State  17:      Singlet-A     10.0678 eV  123.15 nm  f=0.0430  <S**2>=0.000
       9 -> 13         0.18382
      10 -> 13        -0.35985
      10 -> 14         0.42312
      12 -> 20        -0.19068
      12 -> 21        -0.28035

 Excited State  18:      Singlet-A     10.1666 eV  121.95 nm  f=0.0229  <S**2>=0.000
      10 -> 13        -0.16517
      12 -> 20        -0.24498
      12 -> 21         0.61751

 Excited State  19:      Singlet-A     10.2967 eV  120.41 nm  f=0.0171  <S**2>=0.000
       9 -> 14         0.25871
      10 -> 13        -0.17421
      11 -> 20         0.10417
      12 -> 20         0.56094
      12 -> 21         0.13242

 Excited State  20:      Singlet-A     10.5097 eV  117.97 nm  f=0.0033  <S**2>=0.000
       9 -> 14        -0.30256
      11 -> 20        -0.23031
      11 -> 21        -0.12832
      12 -> 20         0.13185
      12 -> 22         0.55706

 Excited State  21:      Singlet-A     10.5169 eV  117.89 nm  f=0.0327  <S**2>=0.000
       9 -> 14        -0.15216
      11 -> 20         0.64566
      12 -> 22         0.20522

 Excited State  22:      Singlet-A     10.6095 eV  116.86 nm  f=0.1574  <S**2>=0.000
       9 -> 14         0.51546
      10 -> 13         0.12380
      10 -> 15        -0.14778
      11 -> 21         0.13379
      12 -> 22         0.37029

 Excited State  23:      Singlet-A     10.7260 eV  115.59 nm  f=0.0039  <S**2>=0.000
      10 -> 15         0.68146

 Excited State  24:      Singlet-A     10.8344 eV  114.44 nm  f=0.0523  <S**2>=0.000
       9 -> 14        -0.11127
      11 -> 21         0.65895
      11 -> 22        -0.10660
      12 -> 23         0.10989

 Excited State  25:      Singlet-A     11.1462 eV  111.23 nm  f=0.0071  <S**2>=0.000
      11 -> 22         0.58261
      12 -> 23         0.37476

 Excited State  26:      Singlet-A     11.2157 eV  110.54 nm  f=0.0596  <S**2>=0.000
       9 -> 15         0.15927
      11 -> 21        -0.10259
      11 -> 22        -0.35196
      12 -> 23         0.46145
      12 -> 24        -0.28916

 Excited State  27:      Singlet-A     11.2903 eV  109.81 nm  f=0.0280  <S**2>=0.000
       9 -> 15         0.17728
      10 -> 16        -0.10560
      11 -> 22        -0.10452
      12 -> 23         0.21176
      12 -> 24         0.62505

 Excited State  28:      Singlet-A     11.3900 eV  108.85 nm  f=0.0271  <S**2>=0.000
       9 -> 15         0.17870
      10 -> 16         0.67199

 Excited State  29:      Singlet-A     11.4008 eV  108.75 nm  f=0.0582  <S**2>=0.000
       9 -> 15         0.63065
      10 -> 16        -0.15497
      12 -> 23        -0.20093
      12 -> 24        -0.10865

 Excited State  30:      Singlet-A     11.6092 eV  106.80 nm  f=0.0070  <S**2>=0.000
       8 -> 13        -0.17026
      11 -> 23         0.67004

 Excited State  31:      Singlet-A     11.6680 eV  106.26 nm  f=0.0048  <S**2>=0.000
       8 -> 13         0.61834
      11 -> 23         0.16538
      12 -> 25         0.24391

 Excited State  32:      Singlet-A     11.8883 eV  104.29 nm  f=0.0894  <S**2>=0.000
       8 -> 13        -0.20326
      11 -> 24         0.12583
      12 -> 25         0.61513
      12 -> 26         0.15491

 Excited State  33:      Singlet-A     12.0537 eV  102.86 nm  f=0.0927  <S**2>=0.000
       7 -> 13         0.11614
       9 -> 16         0.46472
      11 -> 24         0.33583
      12 -> 26         0.33517

 Excited State  34:      Singlet-A     12.0902 eV  102.55 nm  f=0.0018  <S**2>=0.000
       7 -> 13         0.14229
       9 -> 16         0.42859
      10 -> 17         0.11712
      11 -> 24        -0.42336
      11 -> 25        -0.18409
      12 -> 25         0.12522
      12 -> 26        -0.14168

 Excited State  35:      Singlet-A     12.1556 eV  102.00 nm  f=0.0307  <S**2>=0.000
       7 -> 13         0.21306
       9 -> 16        -0.24070
      10 -> 17         0.28735
      11 -> 24        -0.23874
      12 -> 25        -0.10125
      12 -> 26         0.46575

 Excited State  36:      Singlet-A     12.2176 eV  101.48 nm  f=0.0099  <S**2>=0.000
       7 -> 13         0.63442
      10 -> 17        -0.16887
      12 -> 26        -0.17708

 Excited State  37:      Singlet-A     12.2487 eV  101.22 nm  f=0.0214  <S**2>=0.000
      10 -> 17         0.58124
      11 -> 24         0.16059
      11 -> 25         0.15406
      12 -> 26        -0.24414
      12 -> 27         0.17059

 Excited State  38:      Singlet-A     12.4705 eV   99.42 nm  f=0.0330  <S**2>=0.000
      10 -> 17        -0.11205
      12 -> 26         0.11059
      12 -> 27         0.66479

 Excited State  39:      Singlet-A     12.5425 eV   98.85 nm  f=0.0222  <S**2>=0.000
      10 -> 18         0.67844
      10 -> 19        -0.12395

 Excited State  40:      Singlet-A     12.6649 eV   97.90 nm  f=0.0092  <S**2>=0.000
       8 -> 14         0.31994
      11 -> 24        -0.16141
      11 -> 25         0.55658

 Excited State  41:      Singlet-A     12.7815 eV   97.00 nm  f=0.0163  <S**2>=0.000
      11 -> 26         0.59671
      11 -> 27        -0.34213

 Excited State  42:      Singlet-A     12.8739 eV   96.31 nm  f=0.0073  <S**2>=0.000
       8 -> 14         0.50337
       9 -> 17         0.33668
       9 -> 18         0.15996
      11 -> 24         0.10111
      11 -> 25        -0.20927
      11 -> 27        -0.11164

 Excited State  43:      Singlet-A     12.9420 eV   95.80 nm  f=0.0471  <S**2>=0.000
       8 -> 14        -0.27452
       9 -> 17         0.50681
       9 -> 18         0.12968
      10 -> 19         0.28914
      11 -> 25         0.15562

 Excited State  44:      Singlet-A     13.0135 eV   95.27 nm  f=0.0899  <S**2>=0.000
       6 -> 13         0.10429
       8 -> 14         0.13873
       9 -> 17        -0.24598
      10 -> 18         0.10023
      10 -> 19         0.59825

 Excited State  45:      Singlet-A     13.2117 eV   93.84 nm  f=0.0168  <S**2>=0.000
       8 -> 15         0.16024
       9 -> 17        -0.10688
       9 -> 18         0.62982
       9 -> 19         0.14933

 Excited State  46:      Singlet-A     13.2231 eV   93.76 nm  f=0.0289  <S**2>=0.000
       7 -> 14        -0.11096
       8 -> 15        -0.13703
      11 -> 26         0.30773
      11 -> 27         0.57840

 Excited State  47:      Singlet-A     13.5314 eV   91.63 nm  f=0.1061  <S**2>=0.000
       7 -> 14         0.64768
       8 -> 15        -0.19322
       9 -> 19        -0.11762

 Excited State  48:      Singlet-A     13.6860 eV   90.59 nm  f=0.0475  <S**2>=0.000
       8 -> 15         0.50410
       9 -> 19        -0.38918
      12 -> 28        -0.15379

 Excited State  49:      Singlet-A     13.7950 eV   89.88 nm  f=0.0951  <S**2>=0.000
       7 -> 14         0.15114
       8 -> 15         0.22131
       9 -> 18        -0.12189
       9 -> 19         0.47692
      10 -> 20        -0.31370
      12 -> 28        -0.17974

 Excited State  50:      Singlet-A     13.8565 eV   89.48 nm  f=0.0089  <S**2>=0.000
       8 -> 15         0.13869
      10 -> 20        -0.14516
      12 -> 28         0.64730

 Excited State  51:      Singlet-A     13.9726 eV   88.73 nm  f=0.0329  <S**2>=0.000
       8 -> 15         0.10303
       9 -> 19         0.16495
      10 -> 20         0.35958
      12 -> 29         0.53007

 Excited State  52:      Singlet-A     14.0460 eV   88.27 nm  f=0.0135  <S**2>=0.000
       7 -> 16        -0.13277
       8 -> 15         0.16588
      10 -> 20         0.40379
      10 -> 21         0.26066
      12 -> 29        -0.38401
      12 -> 30         0.10670

 Excited State  53:      Singlet-A     14.1045 eV   87.90 nm  f=0.0177  <S**2>=0.000
      10 -> 21         0.63565
      12 -> 29         0.21572

 Excited State  54:      Singlet-A     14.2258 eV   87.15 nm  f=0.0196  <S**2>=0.000
       8 -> 16         0.29611
      10 -> 22         0.10225
      12 -> 30         0.59526

 Excited State  55:      Singlet-A     14.2620 eV   86.93 nm  f=0.0386  <S**2>=0.000
       7 -> 15         0.11140
       8 -> 16         0.58819
      12 -> 30        -0.31189

 Excited State  56:      Singlet-A     14.3365 eV   86.48 nm  f=0.0325  <S**2>=0.000
       7 -> 15         0.63816
       9 -> 20        -0.22779

 Excited State  57:      Singlet-A     14.4236 eV   85.96 nm  f=0.0263  <S**2>=0.000
       6 -> 13         0.10078
       7 -> 15         0.21054
       9 -> 20         0.63420

 Excited State  58:      Singlet-A     14.4851 eV   85.59 nm  f=0.0130  <S**2>=0.000
      10 -> 22         0.40276
      11 -> 28         0.55358

 Excited State  59:      Singlet-A     14.5467 eV   85.23 nm  f=0.0984  <S**2>=0.000
       6 -> 13        -0.30204
      10 -> 22         0.42392
      11 -> 28        -0.33346
      11 -> 29        -0.13215
      12 -> 30        -0.11468

 Excited State  60:      Singlet-A     14.6096 eV   84.86 nm  f=0.0042  <S**2>=0.000
       6 -> 13         0.26063
       7 -> 16        -0.12632
       9 -> 21         0.28988
      10 -> 22         0.26497
      11 -> 28        -0.14775
      11 -> 29         0.45487

 Excited State  61:      Singlet-A     14.6723 eV   84.50 nm  f=0.0288  <S**2>=0.000
       6 -> 13        -0.36736
       7 -> 16         0.17138
       9 -> 22         0.16404
      11 -> 28         0.12874
      11 -> 29         0.46766

 Excited State  62:      Singlet-A     14.7725 eV   83.93 nm  f=0.0366  <S**2>=0.000
       6 -> 13        -0.25119
       9 -> 21         0.56796
      10 -> 23        -0.11336
      11 -> 29        -0.11067
      11 -> 30        -0.18006

 Excited State  63:      Singlet-A     14.8507 eV   83.49 nm  f=0.0295  <S**2>=0.000
      11 -> 30        -0.11072
      12 -> 31         0.68528

 Excited State  64:      Singlet-A     14.9371 eV   83.00 nm  f=0.0235  <S**2>=0.000
       8 -> 17        -0.28680
       9 -> 21         0.11779
      10 -> 23        -0.16970
      11 -> 30         0.58114
      12 -> 31         0.10221

 Excited State  65:      Singlet-A     15.0495 eV   82.38 nm  f=0.0552  <S**2>=0.000
       9 -> 21         0.10844
       9 -> 22        -0.18037
      10 -> 23         0.57830
      10 -> 24        -0.13674
      11 -> 30         0.17944

 Excited State  66:      Singlet-A     15.0976 eV   82.12 nm  f=0.0399  <S**2>=0.000
       6 -> 14         0.19239
       7 -> 16        -0.20297
       8 -> 17        -0.24326
       9 -> 22         0.52738
      10 -> 23         0.14783
      12 -> 32        -0.14021

 Excited State  67:      Singlet-A     15.1826 eV   81.66 nm  f=0.0365  <S**2>=0.000
       6 -> 14         0.13464
       7 -> 16        -0.23052
       7 -> 17         0.11554
       8 -> 17         0.21934
       9 -> 22         0.10906
      12 -> 32         0.56748

 Excited State  68:      Singlet-A     15.2417 eV   81.35 nm  f=0.0380  <S**2>=0.000
       6 -> 14        -0.17410
       7 -> 16         0.36257
       8 -> 17        -0.15702
       8 -> 18         0.17053
       9 -> 22         0.12043
       9 -> 23         0.12381
      10 -> 24        -0.27318
      12 -> 32         0.30427
      12 -> 33         0.12237

 Excited State  69:      Singlet-A     15.2742 eV   81.17 nm  f=0.0516  <S**2>=0.000
       6 -> 14        -0.14923
       7 -> 16         0.16490
       9 -> 22         0.15280
      10 -> 23         0.13481
      10 -> 24         0.58002
      11 -> 31         0.13526

 Excited State  70:      Singlet-A     15.3320 eV   80.87 nm  f=0.2390  <S**2>=0.000
       6 -> 13         0.10422
       8 -> 17         0.41824
       8 -> 18         0.26317
       9 -> 22         0.21047
      10 -> 24        -0.15428
      11 -> 30         0.16765
      12 -> 32        -0.19361

 Excited State  71:      Singlet-A     15.3949 eV   80.54 nm  f=0.0108  <S**2>=0.000
       8 -> 18        -0.11838
       9 -> 23        -0.17472
      12 -> 33         0.64497

 Excited State  72:      Singlet-A     15.4432 eV   80.28 nm  f=0.0211  <S**2>=0.000
       8 -> 18        -0.11658
      10 -> 24        -0.10249
      11 -> 31         0.66289

 Excited State  73:      Singlet-A     15.4820 eV   80.08 nm  f=0.0384  <S**2>=0.000
       6 -> 14        -0.36339
       7 -> 17         0.15644
       8 -> 18        -0.38205
       9 -> 23         0.38558
      11 -> 31        -0.15166

 Excited State  74:      Singlet-A     15.5361 eV   79.80 nm  f=0.1055  <S**2>=0.000
       6 -> 13        -0.11258
       6 -> 14         0.14738
       7 -> 18        -0.10300
       8 -> 18         0.31806
       9 -> 22        -0.12305
       9 -> 23         0.49514
      12 -> 33         0.17867

 Excited State  75:      Singlet-A     15.7286 eV   78.83 nm  f=0.0790  <S**2>=0.000
       6 -> 14         0.27743
       7 -> 16         0.12457
       8 -> 18        -0.22918
       8 -> 19         0.11108
       9 -> 23         0.11988
      10 -> 25        -0.17855
      11 -> 32         0.48486

 Excited State  76:      Singlet-A     15.7773 eV   78.58 nm  f=0.0100  <S**2>=0.000
       8 -> 19         0.54625
       9 -> 24         0.19113
      10 -> 25         0.37767

 Excited State  77:      Singlet-A     15.7859 eV   78.54 nm  f=0.0187  <S**2>=0.000
       7 -> 18         0.10969
       8 -> 19        -0.36661
      10 -> 25         0.50431
      10 -> 26         0.12795
      11 -> 32         0.14189
      12 -> 34        -0.12375

 Excited State  78:      Singlet-A     15.8153 eV   78.40 nm  f=0.0082  <S**2>=0.000
      12 -> 34         0.67396

 Excited State  79:      Singlet-A     15.8647 eV   78.15 nm  f=0.0518  <S**2>=0.000
       8 -> 19        -0.14357
       9 -> 24         0.63348
      11 -> 32         0.14330

 Excited State  80:      Singlet-A     15.9148 eV   77.90 nm  f=0.0150  <S**2>=0.000
       6 -> 14        -0.19748
       6 -> 15         0.13632
       7 -> 16        -0.11360
       7 -> 17         0.22294
       7 -> 18        -0.19296
       8 -> 17        -0.10087
       8 -> 18         0.13263
       9 -> 24        -0.16456
      11 -> 32         0.39729
      11 -> 33        -0.17958
      12 -> 35        -0.14349

 Excited State  81:      Singlet-A     15.9659 eV   77.66 nm  f=0.0602  <S**2>=0.000
       6 -> 15         0.11414
       7 -> 17         0.51625
       7 -> 18         0.17746
      11 -> 33         0.32566
      12 -> 36         0.11511

 Excited State  82:      Singlet-A     16.0008 eV   77.49 nm  f=0.0557  <S**2>=0.000
       6 -> 15         0.11943
       7 -> 17        -0.18046
       7 -> 18        -0.15714
      10 -> 26        -0.36501
      11 -> 32         0.10580
      11 -> 33         0.46828
      12 -> 35        -0.16496

 Excited State  83:      Singlet-A     16.0411 eV   77.29 nm  f=0.0246  <S**2>=0.000
       7 -> 17        -0.10181
       7 -> 18        -0.19418
      10 -> 26         0.35001
      11 -> 33         0.26644
      12 -> 35         0.45852

 Excited State  84:      Singlet-A     16.1640 eV   76.70 nm  f=0.0275  <S**2>=0.000
      10 -> 25         0.15892
      10 -> 26        -0.36394
      10 -> 27         0.28756
      11 -> 33        -0.15464
      12 -> 35         0.39315
      12 -> 36         0.10769

 Excited State  85:      Singlet-A     16.2448 eV   76.32 nm  f=0.1001  <S**2>=0.000
       6 -> 14        -0.14427
       6 -> 15        -0.10307
       6 -> 16        -0.12594
       7 -> 16        -0.18774
       7 -> 18         0.50538
       9 -> 25        -0.15298
      10 -> 27        -0.16577
      11 -> 32         0.10347
      11 -> 35        -0.14639

 Excited State  86:      Singlet-A     16.3212 eV   75.97 nm  f=0.0912  <S**2>=0.000
       6 -> 15         0.56077
       7 -> 19         0.27286
      10 -> 27        -0.14088

 Excited State  87:      Singlet-A     16.3651 eV   75.76 nm  f=0.0169  <S**2>=0.000
       7 -> 19        -0.20467
       9 -> 25         0.34061
      10 -> 27        -0.33954
      12 -> 36         0.43392

 Excited State  88:      Singlet-A     16.4169 eV   75.52 nm  f=0.1466  <S**2>=0.000
       6 -> 15         0.13305
       7 -> 19        -0.21081
       9 -> 25         0.44263
       9 -> 26         0.15278
      11 -> 34         0.12361
      12 -> 36        -0.39503

 Excited State  89:      Singlet-A     16.5266 eV   75.02 nm  f=0.0472  <S**2>=0.000
       6 -> 15         0.10532
       6 -> 16        -0.11810
       7 -> 19        -0.14137
       8 -> 20         0.22391
      10 -> 26         0.19853
      10 -> 27         0.39027
      11 -> 34         0.30952
      12 -> 35        -0.10459
      12 -> 36         0.20766

 Excited State  90:      Singlet-A     16.5601 eV   74.87 nm  f=0.0148  <S**2>=0.000
       7 -> 19        -0.34695
       8 -> 20        -0.25930
       8 -> 21         0.10147
       9 -> 25        -0.24679
      10 -> 27        -0.10813
      11 -> 34         0.17782
      11 -> 35         0.40211

 Excited State  91:      Singlet-A     16.6264 eV   74.57 nm  f=0.0611  <S**2>=0.000
       7 -> 19        -0.32876
       8 -> 20         0.39789
       8 -> 21         0.16227
       9 -> 25        -0.18746
       9 -> 27         0.10068
      11 -> 34        -0.13173
      11 -> 35        -0.24106
      12 -> 36        -0.10439

 Excited State  92:      Singlet-A     16.6488 eV   74.47 nm  f=0.0265  <S**2>=0.000
       6 -> 15        -0.13842
       6 -> 16         0.14439
       7 -> 19         0.18905
       8 -> 20         0.32320
       9 -> 26         0.34850
      10 -> 27        -0.17301
      11 -> 34         0.33907

 Excited State  93:      Singlet-A     16.7258 eV   74.13 nm  f=0.0588  <S**2>=0.000
       6 -> 15         0.10467
       6 -> 16        -0.13331
       8 -> 20        -0.26244
       8 -> 21        -0.10265
       9 -> 25        -0.10890
       9 -> 26         0.37878
       9 -> 27        -0.14928
      11 -> 35        -0.35058
      11 -> 36         0.13640

 Excited State  94:      Singlet-A     16.8134 eV   73.74 nm  f=0.0743  <S**2>=0.000
       6 -> 16         0.31019
       8 -> 20        -0.17733
       9 -> 26        -0.24800
       9 -> 27         0.24387
      11 -> 34         0.35506
      11 -> 35        -0.27643

 Excited State  95:      Singlet-A     16.9944 eV   72.96 nm  f=0.0065  <S**2>=0.000
       6 -> 16         0.14152
       8 -> 21         0.53692

 The electronic state is 1-A.
 Alpha  occ. eigenvalues --  -14.03063 -14.02699  -9.91426  -0.91259  -0.73014
 Alpha  occ. eigenvalues --   -0.55339  -0.48256  -0.45634  -0.37464  -0.35232
 Alpha  occ. eigenvalues --   -0.23140  -0.20788
 Alpha virt. eigenvalues --   -0.03953   0.00872   0.03996   0.06444   0.09327
 Alpha virt. eigenvalues --    0.10575   0.12062   0.15379   0.16468   0.17836
 Alpha virt. eigenvalues --    0.19535   0.20683   0.22616   0.23254   0.24710

 Mulliken charges:
               1
     1  N    0.207906
     2  N   -0.276811
     3  C    0.669122
     4  H   -0.018566
     5  H   -0.006957
     6  H   -0.402885
     7  H   -0.171809
 Sum of Mulliken charges =   0.00000

 Dipole moment (field-independent basis, Debye):
    X=              0.6258    Y=              1.5361    Z=              0.9487  Tot=              1.9109
 Quadrupole moment (field-independent basis, Debye-Ang):
   XX=            -15.1387   YY=            -18.8910   ZZ=            -20.6037
   XY=             -0.2210   XZ=              1.7500   YZ=              0.2624

 Normal termination of Gaussian 16 at Mon Mar 21 20:18:19 2022.
