 Gaussian 16, Revision C.01,
 Gaussian 16:  EM64L-G16RevC.01  3-Jul-2019

 ----------------------------------------------------------------------
 #P TD(Nstates=10000) pbepbe/Gen SCF(maxcycles=100) Int(Grid=ultrafine)
 ----------------------------------------------------------------------

 ---------------------
 xGDB7_00001_tier4.com
 ---------------------
 Symbolic Z-matrix:
 Charge =  0 Multiplicity = 1

                         Standard orientation:
 ---------------------------------------------------------------------
 Center     Atomic      Atomic             Coordinates (Angstroms)
 Number     Number       Type             X           Y           Z
 ---------------------------------------------------------------------
      1          8           0       -1.023805   -0.438791    0.000000
      2          6           0       -0.000000    0.418952    0.000000
      3          8           0        1.152985    0.109982   -0.000000
      4          1           0       -0.656943   -1.333011    0.000000
      5          1           0       -0.376498    1.449770    0.000000
 ---------------------------------------------------------------------

 SCF Done:  E(RPBE-PBE) =  -189.438557351     A.U. after   14 cycles

 Excitation energies and oscillator strengths:

 Excited State   1:      Singlet-A"     5.7079 eV  217.21 nm  f=0.0007  <S**2>=0.000
      12 -> 13         0.70684
 This state for optimization and/or second-order correction.
 Total Energy, E(TD-HF/TD-DFT) =  -189.228795145
 Copying the excited state density for this state as the 1-particle RhoCI density.

 Excited State   2:      Singlet-A'     6.8887 eV  179.98 nm  f=0.0425  <S**2>=0.000
      11 -> 13        -0.16190
      12 -> 14         0.68708

 Excited State   3:      Singlet-A'     7.6755 eV  161.53 nm  f=0.0518  <S**2>=0.000
      12 -> 15         0.70333

 Excited State   4:      Singlet-A"     8.1421 eV  152.28 nm  f=0.0034  <S**2>=0.000
      11 -> 14         0.70595

 Excited State   5:      Singlet-A'     8.4162 eV  147.32 nm  f=0.2021  <S**2>=0.000
      11 -> 13         0.63676
      12 -> 14         0.14799
      12 -> 16         0.15641

 Excited State   6:      Singlet-A"     8.7615 eV  141.51 nm  f=0.0002  <S**2>=0.000
      10 -> 13         0.70350

 Excited State   7:      Singlet-A"     8.9598 eV  138.38 nm  f=0.0029  <S**2>=0.000
      11 -> 15         0.58740
      12 -> 17        -0.39162

 Excited State   8:      Singlet-A'     8.9689 eV  138.24 nm  f=0.0797  <S**2>=0.000
      11 -> 13        -0.12471
      12 -> 16         0.67766
      12 -> 18         0.10629

 Excited State   9:      Singlet-A"     8.9716 eV  138.20 nm  f=0.0152  <S**2>=0.000
      11 -> 15         0.39273
      12 -> 17         0.58783

 Excited State  10:      Singlet-A'     9.6064 eV  129.06 nm  f=0.0109  <S**2>=0.000
      12 -> 18         0.69235

 Excited State  11:      Singlet-A'     9.8904 eV  125.36 nm  f=0.0555  <S**2>=0.000
      10 -> 14         0.69374

 Excited State  12:      Singlet-A'    10.1244 eV  122.46 nm  f=0.0041  <S**2>=0.000
      11 -> 17        -0.20598
      12 -> 19         0.65407

 Excited State  13:      Singlet-A"    10.2058 eV  121.48 nm  f=0.0230  <S**2>=0.000
      11 -> 16         0.70302

 Excited State  14:      Singlet-A'    10.3767 eV  119.48 nm  f=0.0035  <S**2>=0.000
      11 -> 17         0.54375
      12 -> 19         0.13698
      12 -> 20        -0.40634

 Excited State  15:      Singlet-A'    10.4417 eV  118.74 nm  f=0.0057  <S**2>=0.000
      11 -> 17         0.37485
      12 -> 19         0.13112
      12 -> 20         0.57323

 Excited State  16:      Singlet-A"    10.6169 eV  116.78 nm  f=0.0046  <S**2>=0.000
      12 -> 21         0.70591

 Excited State  17:      Singlet-A'    10.7088 eV  115.78 nm  f=0.0564  <S**2>=0.000
      10 -> 15         0.69104

 Excited State  18:      Singlet-A"    10.8725 eV  114.03 nm  f=0.0016  <S**2>=0.000
       8 -> 13         0.20244
      11 -> 18         0.67500

 Excited State  19:      Singlet-A"    11.0065 eV  112.65 nm  f=0.0036  <S**2>=0.000
       7 -> 13         0.10905
       8 -> 13         0.65281
      11 -> 18        -0.19990

 Excited State  20:      Singlet-A"    11.2461 eV  110.25 nm  f=0.0408  <S**2>=0.000
       9 -> 14         0.70058

 Excited State  21:      Singlet-A'    11.2498 eV  110.21 nm  f=0.0603  <S**2>=0.000
      12 -> 22         0.69678

 Excited State  22:      Singlet-A"    11.3731 eV  109.02 nm  f=0.0001  <S**2>=0.000
      11 -> 19         0.70623

 Excited State  23:      Singlet-A'    11.4074 eV  108.69 nm  f=0.0601  <S**2>=0.000
       9 -> 13         0.61310
      11 -> 21         0.21570
      12 -> 24        -0.12412

 Excited State  24:      Singlet-A"    11.7208 eV  105.78 nm  f=0.0020  <S**2>=0.000
       7 -> 13         0.19565
      11 -> 20         0.64991
      12 -> 23         0.19313

 Excited State  25:      Singlet-A"    11.8037 eV  105.04 nm  f=0.0002  <S**2>=0.000
      11 -> 20        -0.19655
      12 -> 23         0.67220

 Excited State  26:      Singlet-A'    11.8318 eV  104.79 nm  f=0.0175  <S**2>=0.000
       8 -> 14         0.68930
      12 -> 24        -0.11265

 Excited State  27:      Singlet-A'    11.9175 eV  104.04 nm  f=0.0192  <S**2>=0.000
      10 -> 16         0.64049
      11 -> 21         0.28930

 Excited State  28:      Singlet-A"    11.9210 eV  104.01 nm  f=0.0177  <S**2>=0.000
       7 -> 13         0.61525
       9 -> 15         0.22757
      10 -> 17        -0.13583
      11 -> 20        -0.16946

 Excited State  29:      Singlet-A"    11.9712 eV  103.57 nm  f=0.0128  <S**2>=0.000
       7 -> 13         0.11032
      10 -> 17         0.69159

 Excited State  30:      Singlet-A"    12.0947 eV  102.51 nm  f=0.0132  <S**2>=0.000
       7 -> 13        -0.21471
       9 -> 15         0.66638

 Excited State  31:      Singlet-A'    12.1595 eV  101.96 nm  f=0.0172  <S**2>=0.000
       9 -> 13        -0.16465
      10 -> 16        -0.26312
      10 -> 18         0.13133
      11 -> 21         0.56885
      12 -> 24         0.19551

 Excited State  32:      Singlet-A'    12.3900 eV  100.07 nm  f=0.0536  <S**2>=0.000
       7 -> 14         0.11523
       8 -> 15        -0.13007
       9 -> 13         0.12660
      11 -> 21        -0.11111
      12 -> 24         0.62765

 Excited State  33:      Singlet-A"    12.6018 eV   98.39 nm  f=0.0000  <S**2>=0.000
      11 -> 22         0.70335

 Excited State  34:      Singlet-A'    12.6503 eV   98.01 nm  f=0.0111  <S**2>=0.000
       8 -> 15         0.60711
      10 -> 18        -0.34865

 Excited State  35:      Singlet-A'    12.7829 eV   96.99 nm  f=0.0457  <S**2>=0.000
       8 -> 15         0.31623
       9 -> 17        -0.14739
      10 -> 18         0.55728
      11 -> 21        -0.12150
      12 -> 25        -0.10504

 Excited State  36:      Singlet-A'    12.9767 eV   95.54 nm  f=0.0302  <S**2>=0.000
       7 -> 14         0.62475
      10 -> 19        -0.24514
      11 -> 23         0.14780
      12 -> 25         0.11212

 Excited State  37:      Singlet-A'    13.0750 eV   94.83 nm  f=0.0664  <S**2>=0.000
       7 -> 14         0.21189
      10 -> 19         0.63980
      12 -> 25         0.17803

 Excited State  38:      Singlet-A'    13.2706 eV   93.43 nm  f=0.0081  <S**2>=0.000
       9 -> 17         0.18928
      11 -> 23         0.58493
      12 -> 25        -0.27039
      12 -> 26        -0.11185

 Excited State  39:      Singlet-A"    13.3179 eV   93.10 nm  f=0.0180  <S**2>=0.000
       9 -> 16         0.70151

 Excited State  40:      Singlet-A'    13.3676 eV   92.75 nm  f=0.0757  <S**2>=0.000
      10 -> 20         0.50134
      11 -> 23         0.10768
      12 -> 25         0.45769

 Excited State  41:      Singlet-A'    13.4911 eV   91.90 nm  f=0.0252  <S**2>=0.000
       7 -> 14         0.15457
       9 -> 17         0.17764
      10 -> 20         0.43077
      11 -> 23        -0.22656
      12 -> 25        -0.34658
      12 -> 26         0.24956

 Excited State  42:      Singlet-A'    13.5764 eV   91.32 nm  f=0.0088  <S**2>=0.000
       7 -> 15        -0.27095
       9 -> 17         0.57797
      10 -> 18         0.11118
      10 -> 20        -0.18028

 Excited State  43:      Singlet-A"    13.5954 eV   91.20 nm  f=0.0027  <S**2>=0.000
      10 -> 21         0.50087
      11 -> 24         0.49760

 Excited State  44:      Singlet-A"    13.6386 eV   90.91 nm  f=0.0247  <S**2>=0.000
      10 -> 21        -0.49729
      11 -> 24         0.49750

 Excited State  45:      Singlet-A'    13.9085 eV   89.14 nm  f=0.1117  <S**2>=0.000
       7 -> 15        -0.15815
       8 -> 16         0.65210
      12 -> 26        -0.18720

 Excited State  46:      Singlet-A"    13.9631 eV   88.79 nm  f=0.0002  <S**2>=0.000
       8 -> 17         0.67550
       9 -> 18         0.20664

 Excited State  47:      Singlet-A"    14.0619 eV   88.17 nm  f=0.0140  <S**2>=0.000
       8 -> 17        -0.17857
       9 -> 18         0.58964
      12 -> 27        -0.31773

 Excited State  48:      Singlet-A'    14.0672 eV   88.14 nm  f=0.0563  <S**2>=0.000
       7 -> 15         0.60266
       8 -> 16         0.18191
       8 -> 18         0.12916
       9 -> 17         0.20924

 Excited State  49:      Singlet-A"    14.1387 eV   87.69 nm  f=0.0168  <S**2>=0.000
       9 -> 18         0.28344
      12 -> 27         0.62925

 Excited State  50:      Singlet-A'    14.2877 eV   86.78 nm  f=0.0230  <S**2>=0.000
       8 -> 18        -0.10014
      10 -> 22         0.67723
      12 -> 26         0.12407

 Excited State  51:      Singlet-A"    14.4865 eV   85.59 nm  f=0.0095  <S**2>=0.000
       9 -> 19         0.68701
      11 -> 25         0.13104

 Excited State  52:      Singlet-A'    14.4915 eV   85.56 nm  f=0.0804  <S**2>=0.000
       8 -> 16         0.13475
       8 -> 18        -0.35015
       9 -> 21        -0.13747
      10 -> 22        -0.15624
      11 -> 23         0.10127
      12 -> 26         0.46387
      12 -> 28        -0.15268
      12 -> 31         0.11804

 Excited State  53:      Singlet-A"    14.5999 eV   84.92 nm  f=0.0181  <S**2>=0.000
       9 -> 19        -0.11824
      11 -> 25         0.68552

 Excited State  54:      Singlet-A'    14.8023 eV   83.76 nm  f=0.0489  <S**2>=0.000
       7 -> 16        -0.16115
       8 -> 18         0.52527
       9 -> 21        -0.20661
      10 -> 24         0.15308
      12 -> 26         0.21725
      12 -> 28        -0.16115
      12 -> 31         0.11120

 Excited State  55:      Singlet-A"    14.8273 eV   83.62 nm  f=0.0000  <S**2>=0.000
      10 -> 23         0.69872

 Excited State  56:      Singlet-A"    14.8934 eV   83.25 nm  f=0.0543  <S**2>=0.000
       6 -> 13        -0.15630
       9 -> 20         0.67410

 Excited State  57:      Singlet-A'    14.9684 eV   82.83 nm  f=0.0061  <S**2>=0.000
       9 -> 21        -0.31393
      12 -> 28         0.61409

 Excited State  58:      Singlet-A'    15.0266 eV   82.51 nm  f=0.0093  <S**2>=0.000
       7 -> 16         0.53749
       8 -> 19         0.43105

 Excited State  59:      Singlet-A"    15.0709 eV   82.27 nm  f=0.0153  <S**2>=0.000
       7 -> 17         0.70015

 Excited State  60:      Singlet-A'    15.0868 eV   82.18 nm  f=0.0159  <S**2>=0.000
       7 -> 16        -0.37213
       8 -> 19         0.54157
       9 -> 21         0.19333

 Excited State  61:      Singlet-A'    15.2066 eV   81.53 nm  f=0.0150  <S**2>=0.000
       7 -> 16         0.12574
       7 -> 18         0.11368
       8 -> 18         0.10771
       8 -> 19        -0.11475
       8 -> 20         0.17022
       9 -> 21         0.50836
      10 -> 24         0.15687
      12 -> 26         0.15520
      12 -> 28         0.23661
      12 -> 31         0.14660

 Excited State  62:      Singlet-A"    15.2791 eV   81.15 nm  f=0.0364  <S**2>=0.000
       6 -> 13        -0.13770
      11 -> 26         0.67558

 Excited State  63:      Singlet-A'    15.3824 eV   80.60 nm  f=0.0373  <S**2>=0.000
       8 -> 18        -0.11073
      10 -> 24         0.58423
      11 -> 27        -0.32557

 Excited State  64:      Singlet-A'    15.4707 eV   80.14 nm  f=0.0065  <S**2>=0.000
       8 -> 20         0.64831
       9 -> 21        -0.11597
      11 -> 27         0.15924

 Excited State  65:      Singlet-A'    15.5180 eV   79.90 nm  f=0.0591  <S**2>=0.000
       8 -> 20        -0.13526
      10 -> 24         0.29823
      11 -> 27         0.59754

 Excited State  66:      Singlet-A"    15.6247 eV   79.35 nm  f=0.0034  <S**2>=0.000
       8 -> 21         0.69639
       9 -> 22        -0.11010

 Excited State  67:      Singlet-A'    15.6653 eV   79.15 nm  f=0.0050  <S**2>=0.000
       7 -> 18         0.45061
      12 -> 29         0.52688

 Excited State  68:      Singlet-A"    15.6917 eV   79.01 nm  f=0.0032  <S**2>=0.000
       8 -> 21         0.10312
       9 -> 22         0.69052

 Excited State  69:      Singlet-A'    15.7989 eV   78.48 nm  f=0.0265  <S**2>=0.000
       7 -> 18         0.43976
      12 -> 29        -0.34000
      12 -> 30        -0.38056
      12 -> 31        -0.10062

 Excited State  70:      Singlet-A'    15.8913 eV   78.02 nm  f=0.0233  <S**2>=0.000
       7 -> 18         0.21709
      12 -> 29        -0.28024
      12 -> 30         0.58169

 Excited State  71:      Singlet-A"    16.0491 eV   77.25 nm  f=0.0618  <S**2>=0.000
       6 -> 13         0.58355
       8 -> 23        -0.14986
       9 -> 20         0.11063
      11 -> 26         0.10113
      12 -> 32        -0.26983

 Excited State  72:      Singlet-A'    16.2067 eV   76.50 nm  f=0.0040  <S**2>=0.000
       6 -> 14        -0.12456
       7 -> 19         0.66152
      10 -> 25        -0.16430

 Excited State  73:      Singlet-A'    16.2499 eV   76.30 nm  f=0.0176  <S**2>=0.000
       8 -> 22         0.63432
       9 -> 23         0.21456
      12 -> 31        -0.18623

 Excited State  74:      Singlet-A"    16.2960 eV   76.08 nm  f=0.0056  <S**2>=0.000
      11 -> 28         0.61818
      12 -> 32         0.32311

 Excited State  75:      Singlet-A'    16.3118 eV   76.01 nm  f=0.0275  <S**2>=0.000
       6 -> 14        -0.10670
       8 -> 22        -0.12237
       9 -> 23         0.39920
      10 -> 25         0.52118
      12 -> 31        -0.14337

 Excited State  76:      Singlet-A"    16.4244 eV   75.49 nm  f=0.1477  <S**2>=0.000
       6 -> 13         0.15820
       8 -> 23        -0.19279
       9 -> 24         0.12121
      11 -> 28        -0.32930
      12 -> 32         0.54600

 Excited State  77:      Singlet-A'    16.4718 eV   75.27 nm  f=0.0647  <S**2>=0.000
       6 -> 14        -0.10681
       7 -> 19        -0.10844
       7 -> 20         0.37290
       8 -> 22        -0.16494
       9 -> 23         0.42288
      10 -> 25        -0.33071

 Excited State  78:      Singlet-A'    16.5912 eV   74.73 nm  f=0.0820  <S**2>=0.000
       7 -> 19         0.10323
       7 -> 20         0.57609
       8 -> 22         0.12354
       9 -> 23        -0.21435
      10 -> 25         0.23634
      12 -> 31         0.11603

 Excited State  79:      Singlet-A'    16.6814 eV   74.32 nm  f=0.0175  <S**2>=0.000
       6 -> 14         0.11768
       7 -> 20        -0.10770
       8 -> 22         0.10716
       8 -> 24         0.13328
       9 -> 23         0.18694
      10 -> 26         0.18619
      12 -> 26        -0.11173
      12 -> 31         0.52425
      12 -> 33         0.11915

 Excited State  80:      Singlet-A"    16.7176 eV   74.16 nm  f=0.0039  <S**2>=0.000
       7 -> 21         0.26444
       8 -> 23         0.19764
       9 -> 24         0.61925

 Excited State  81:      Singlet-A"    16.7307 eV   74.11 nm  f=0.0005  <S**2>=0.000
       7 -> 21         0.65481
       9 -> 24        -0.24269

 Excited State  82:      Singlet-A'    16.8817 eV   73.44 nm  f=0.1107  <S**2>=0.000
       6 -> 14         0.51363
      10 -> 26        -0.43006

 Excited State  83:      Singlet-A"    16.9898 eV   72.98 nm  f=0.0431  <S**2>=0.000
       6 -> 13         0.15476
       8 -> 23         0.58058
       9 -> 24        -0.15096
      10 -> 27        -0.27825
      12 -> 32         0.11350

 Excited State  84:      Singlet-A"    17.0811 eV   72.59 nm  f=0.0007  <S**2>=0.000
      11 -> 29         0.68175
      11 -> 30         0.17095

 Excited State  85:      Singlet-A'    17.1855 eV   72.14 nm  f=0.0182  <S**2>=0.000
       6 -> 14         0.31150
       6 -> 15         0.13000
       8 -> 24        -0.29745
      10 -> 26         0.45943
      11 -> 32        -0.18215

 Excited State  86:      Singlet-A"    17.1858 eV   72.14 nm  f=0.1143  <S**2>=0.000
       6 -> 13         0.12319
       8 -> 23         0.20169
      10 -> 27         0.63830

 Excited State  87:      Singlet-A"    17.2145 eV   72.02 nm  f=0.0050  <S**2>=0.000
      11 -> 29        -0.16576
      11 -> 30         0.68186

 Excited State  88:      Singlet-A'    17.3871 eV   71.31 nm  f=0.0452  <S**2>=0.000
       6 -> 14         0.13890
       6 -> 15         0.10983
       8 -> 24         0.58520
      11 -> 32        -0.14259
      12 -> 33        -0.23846

 Excited State  89:      Singlet-A'    17.4153 eV   71.19 nm  f=0.0244  <S**2>=0.000
       7 -> 22         0.67106
      12 -> 33         0.15664

 Excited State  90:      Singlet-A'    17.5342 eV   70.71 nm  f=0.0126  <S**2>=0.000
       6 -> 15         0.14912
       7 -> 22        -0.11742
       8 -> 24         0.11601
      10 -> 28        -0.11619
      11 -> 32        -0.28497
      12 -> 33         0.57703

 Excited State  91:      Singlet-A"    17.5977 eV   70.45 nm  f=0.0008  <S**2>=0.000
       9 -> 25        -0.14693
      11 -> 31         0.68804

 Excited State  92:      Singlet-A"    17.7266 eV   69.94 nm  f=0.0138  <S**2>=0.000
       9 -> 25         0.68897
      11 -> 31         0.14234

 Excited State  93:      Singlet-A'    17.7451 eV   69.87 nm  f=0.0255  <S**2>=0.000
       6 -> 15         0.54985
       7 -> 24         0.12064
      11 -> 32         0.38284

 Excited State  94:      Singlet-A'    17.8394 eV   69.50 nm  f=0.0851  <S**2>=0.000
       6 -> 14         0.11777
       6 -> 15        -0.31170
       7 -> 24         0.13612
       8 -> 25        -0.10260
      10 -> 26         0.13071
      10 -> 28        -0.24087
      11 -> 32         0.41982
      12 -> 33         0.19727

 Excited State  95:      Singlet-A"    17.9087 eV   69.23 nm  f=0.0658  <S**2>=0.000
       7 -> 23         0.69208

 Excited State  96:      Singlet-A'    18.0987 eV   68.50 nm  f=0.0680  <S**2>=0.000
       7 -> 24         0.12064
      10 -> 28         0.61852
      10 -> 30         0.10167
      12 -> 31        -0.10220
      12 -> 33         0.11365

 Excited State  97:      Singlet-A'    18.3130 eV   67.70 nm  f=0.0013  <S**2>=0.000
       8 -> 25         0.68400

 Excited State  98:      Singlet-A"    18.4592 eV   67.17 nm  f=0.0350  <S**2>=0.000
       9 -> 26         0.56951
      11 -> 33        -0.14149
      12 -> 34        -0.34233

 Excited State  99:      Singlet-A"    18.4744 eV   67.11 nm  f=0.0000  <S**2>=0.000
       9 -> 26         0.33396
      12 -> 34         0.61363

 Excited State 100:      Singlet-A'    18.5948 eV   66.68 nm  f=0.0055  <S**2>=0.000
       6 -> 16        -0.14008
       9 -> 27         0.66074
      10 -> 29        -0.16607

 Excited State 101:      Singlet-A'    18.6053 eV   66.64 nm  f=0.1271  <S**2>=0.000
       6 -> 16        -0.29477
       7 -> 24         0.57132
       7 -> 26        -0.10384
      10 -> 30        -0.16085

 Excited State 102:      Singlet-A'    18.7764 eV   66.03 nm  f=0.0080  <S**2>=0.000
       6 -> 16         0.55327
       6 -> 18         0.12541
       7 -> 24         0.18545
      10 -> 29        -0.19229
      10 -> 30        -0.28121

 Excited State 103:      Singlet-A'    18.8300 eV   65.84 nm  f=0.0035  <S**2>=0.000
       6 -> 16         0.22922
       8 -> 26         0.17166
       9 -> 27         0.15854
      10 -> 29         0.55667
      10 -> 30         0.21276

 Excited State 104:      Singlet-A"    18.8346 eV   65.83 nm  f=0.0009  <S**2>=0.000
       6 -> 17         0.67947
      11 -> 33        -0.17874

 Excited State 105:      Singlet-A"    18.8838 eV   65.66 nm  f=0.0156  <S**2>=0.000
       6 -> 17         0.15696
       9 -> 26         0.15993
      11 -> 33         0.65537

 Excited State 106:      Singlet-A'    19.0510 eV   65.08 nm  f=0.0562  <S**2>=0.000
       7 -> 24         0.14384
       8 -> 26        -0.38990
      10 -> 29        -0.11873
      10 -> 30         0.39806
      12 -> 35        -0.32299

 Excited State 107:      Singlet-A'    19.1271 eV   64.82 nm  f=0.0026  <S**2>=0.000
       8 -> 26         0.52008
      10 -> 29        -0.22261
      10 -> 30         0.26963
      12 -> 35        -0.19656
      12 -> 36         0.11413

 Excited State 108:      Singlet-A"    19.1564 eV   64.72 nm  f=0.0151  <S**2>=0.000
       8 -> 27         0.70242

 Excited State 109:      Singlet-A'    19.2536 eV   64.40 nm  f=0.0892  <S**2>=0.000
      10 -> 30        -0.16812
      10 -> 31         0.52248
      12 -> 35        -0.38202

 Excited State 110:      Singlet-A'    19.3119 eV   64.20 nm  f=0.0235  <S**2>=0.000
       6 -> 18         0.18862
       7 -> 25         0.21579
      10 -> 29        -0.12313
      10 -> 30         0.14247
      10 -> 31         0.43306
      12 -> 35         0.40721
      12 -> 36         0.10110

 Excited State 111:      Singlet-A"    19.3222 eV   64.17 nm  f=0.0033  <S**2>=0.000
      10 -> 32         0.70096

 Excited State 112:      Singlet-A"    19.4656 eV   63.69 nm  f=0.0084  <S**2>=0.000
       9 -> 28         0.68845

 Excited State 113:      Singlet-A'    19.5764 eV   63.33 nm  f=0.1204  <S**2>=0.000
       6 -> 18         0.51353
       7 -> 25         0.28485
       7 -> 26         0.23036
      10 -> 31        -0.11403
      12 -> 35        -0.13997

 Excited State 114:      Singlet-A'    19.6979 eV   62.94 nm  f=0.1478  <S**2>=0.000
       6 -> 18        -0.28534
       7 -> 25         0.50623
       7 -> 26        -0.14098
       8 -> 28        -0.16452
      10 -> 30        -0.15112
      12 -> 36         0.21861

 Excited State 115:      Singlet-A'    19.8187 eV   62.56 nm  f=0.0084  <S**2>=0.000
       6 -> 19         0.30804
       8 -> 28         0.14082
      11 -> 34         0.56216
      12 -> 36         0.22945

 Excited State 116:      Singlet-A'    19.9642 eV   62.10 nm  f=0.0219  <S**2>=0.000
       6 -> 19         0.61533
       8 -> 28        -0.17187
      11 -> 34        -0.23667

 Excited State 117:      Singlet-A'    19.9967 eV   62.00 nm  f=0.0513  <S**2>=0.000
       7 -> 25         0.18458
       7 -> 26        -0.10773
       8 -> 28         0.56464
      12 -> 36        -0.29208

 Excited State 118:      Singlet-A"    20.1859 eV   61.42 nm  f=0.0091  <S**2>=0.000

 The electronic state is 1-A'.
 Alpha  occ. eigenvalues --  -18.83365 -18.77642 -10.03609  -1.03325  -0.94698
 Alpha  occ. eigenvalues --   -0.61849  -0.48099  -0.44043  -0.41967  -0.36713
 Alpha  occ. eigenvalues --   -0.30609  -0.25748
 Alpha virt. eigenvalues --   -0.05568  -0.00918   0.02352   0.06797   0.07285
 Alpha virt. eigenvalues --    0.09307   0.11261   0.12593   0.13399   0.15571
 Alpha virt. eigenvalues --    0.17648   0.19402   0.23083   0.25083   0.26372

 Mulliken charges:
               1
     1  O   -0.175788
     2  C    0.613143
     3  O   -0.285118
     4  H    0.150128
     5  H   -0.302365
 Sum of Mulliken charges =   0.00000

 Dipole moment (field-independent basis, Debye):
    X=             -1.4882    Y=             -0.3650    Z=             -0.0000  Tot=              1.5324
 Quadrupole moment (field-independent basis, Debye-Ang):
   XX=            -22.2735   YY=            -13.2984   ZZ=            -17.2738
   XY=              0.0765   XZ=              0.0000   YZ=             -0.0000

 Normal termination of Gaussian 16 at Mon Mar 21 04:14:50 2022.
