 Gaussian 16, Revision C.01,
 Gaussian 16:  EM64L-G16RevC.01  3-Jul-2019

 ----------------------------------------------------------------------
 #P TD(Nstates=10000) pbepbe/Gen SCF(maxcycles=100) Int(Grid=ultrafine)
 ----------------------------------------------------------------------

 ---------------------
 xGDB7_00001_tier4.com
 ---------------------
 Symbolic Z-matrix:
 Charge =  0 Multiplicity = 1

                         Standard orientation:
 ---------------------------------------------------------------------
 Center     Atomic      Atomic             Coordinates (Angstroms)
 Number     Number       Type             X           Y           Z
 ---------------------------------------------------------------------
      1          6           0        0.000000    1.267731   -0.259082
      2          6           0       -0.000000   -0.000000    0.585552
      3          6           0       -0.000000   -1.267731   -0.259082
      4          1           0        0.000000    2.164308    0.363087
      5          1           0       -0.881453    1.307675   -0.903652
      6          1           0        0.881453    1.307675   -0.903652
      7          1           0       -0.874532    0.000000    1.242055
      8          1           0        0.874532   -0.000000    1.242055
      9          1           0       -0.881453   -1.307675   -0.903652
     10          1           0       -0.000000   -2.164308    0.363087
     11          1           0        0.881453   -1.307675   -0.903652
 ---------------------------------------------------------------------

 SCF Done:  E(RPBE-PBE) =  -118.877286034     A.U. after   12 cycles

 Excitation energies and oscillator strengths:

 Excited State   1:      Singlet-B1     7.9580 eV  155.80 nm  f=0.0034  <S**2>=0.000
      13 -> 14         0.70678
 This state for optimization and/or second-order correction.
 Total Energy, E(TD-HF/TD-DFT) =  -118.584836416
 Copying the excited state density for this state as the 1-particle RhoCI density.

 Excited State   2:      Singlet-A1     8.3376 eV  148.70 nm  f=0.0064  <S**2>=0.000
      12 -> 14         0.70393

 Excited State   3:      Singlet-B2     8.3480 eV  148.52 nm  f=0.0447  <S**2>=0.000
      11 -> 14         0.70617

 Excited State   4:      Singlet-A2     8.7533 eV  141.64 nm  f=0.0000  <S**2>=0.000
      13 -> 15         0.70627

 Excited State   5:      Singlet-B1     8.9819 eV  138.04 nm  f=0.0728  <S**2>=0.000
      13 -> 16         0.70538

 Excited State   6:      Singlet-B2     9.0843 eV  136.48 nm  f=0.0219  <S**2>=0.000
      12 -> 15         0.70601

 Excited State   7:      Singlet-A1     9.1952 eV  134.84 nm  f=0.0028  <S**2>=0.000
      11 -> 15         0.70185

 Excited State   8:      Singlet-A1     9.2693 eV  133.76 nm  f=0.0648  <S**2>=0.000
      12 -> 16         0.67162
      13 -> 17        -0.21839

 Excited State   9:      Singlet-B2     9.3363 eV  132.80 nm  f=0.0094  <S**2>=0.000
      11 -> 16         0.70443

 Excited State  10:      Singlet-A2     9.3532 eV  132.56 nm  f=0.0000  <S**2>=0.000
      10 -> 14         0.70606

 Excited State  11:      Singlet-A1     9.5933 eV  129.24 nm  f=0.1824  <S**2>=0.000
      12 -> 16         0.21279
      13 -> 17         0.66559

 Excited State  12:      Singlet-B1     9.8038 eV  126.47 nm  f=0.0668  <S**2>=0.000
      12 -> 17         0.67731
      13 -> 18         0.17850

 Excited State  13:      Singlet-A2     9.8241 eV  126.20 nm  f=0.0000  <S**2>=0.000
      11 -> 17         0.70605

 Excited State  14:      Singlet-B1     9.8853 eV  125.42 nm  f=0.0081  <S**2>=0.000
      12 -> 17        -0.17234
      13 -> 18         0.68243

 Excited State  15:      Singlet-B2     9.9273 eV  124.89 nm  f=0.0124  <S**2>=0.000
       9 -> 14         0.69968

 Excited State  16:      Singlet-B1    10.1852 eV  121.73 nm  f=0.0807  <S**2>=0.000
      10 -> 15         0.69962

 Excited State  17:      Singlet-A1    10.2588 eV  120.86 nm  f=0.0014  <S**2>=0.000
      12 -> 18         0.70121

 Excited State  18:      Singlet-A2    10.3315 eV  120.01 nm  f=0.0000  <S**2>=0.000
      10 -> 16         0.70553

 Excited State  19:      Singlet-B2    10.3349 eV  119.97 nm  f=0.1674  <S**2>=0.000
      11 -> 18         0.69401

 Excited State  20:      Singlet-A1    10.5367 eV  117.67 nm  f=0.0016  <S**2>=0.000
       8 -> 14        -0.11254
       9 -> 15         0.15163
      13 -> 19         0.66625

 Excited State  21:      Singlet-B1    10.6702 eV  116.20 nm  f=0.0071  <S**2>=0.000
      12 -> 19         0.16634
      13 -> 20         0.67951

 Excited State  22:      Singlet-A2    10.6979 eV  115.90 nm  f=0.0000  <S**2>=0.000
      11 -> 19         0.14229
      13 -> 21         0.69124

 Excited State  23:      Singlet-B1    10.7233 eV  115.62 nm  f=0.0023  <S**2>=0.000
      12 -> 19         0.68535
      13 -> 20        -0.16796

 Excited State  24:      Singlet-A1    10.7294 eV  115.56 nm  f=0.0788  <S**2>=0.000
       9 -> 15         0.68490
      13 -> 19        -0.14873

 Excited State  25:      Singlet-A2    10.7850 eV  114.96 nm  f=0.0000  <S**2>=0.000
      11 -> 19         0.68919
      13 -> 21        -0.14021

 Excited State  26:      Singlet-B2    10.8375 eV  114.40 nm  f=0.0036  <S**2>=0.000
       9 -> 16         0.54019
      10 -> 17        -0.45091

 Excited State  27:      Singlet-A1    10.9039 eV  113.71 nm  f=0.0388  <S**2>=0.000
       8 -> 14         0.68010
      11 -> 21         0.13245

 Excited State  28:      Singlet-B2    10.9094 eV  113.65 nm  f=0.0033  <S**2>=0.000
       9 -> 16         0.39075
      10 -> 17         0.45652
      12 -> 21        -0.32469
      13 -> 22         0.15211

 Excited State  29:      Singlet-B2    11.0238 eV  112.47 nm  f=0.0133  <S**2>=0.000
       9 -> 16         0.11269
      10 -> 17         0.14474
      11 -> 20         0.60847
      12 -> 21         0.27829

 Excited State  30:      Singlet-B2    11.0520 eV  112.18 nm  f=0.0599  <S**2>=0.000
       9 -> 16         0.10997
      11 -> 20        -0.31478
      12 -> 21         0.48154
      13 -> 22         0.38277

 Excited State  31:      Singlet-A1    11.0691 eV  112.01 nm  f=0.0055  <S**2>=0.000
      12 -> 20         0.68519

 Excited State  32:      Singlet-A1    11.1864 eV  110.84 nm  f=0.0489  <S**2>=0.000
       8 -> 14        -0.12259
      11 -> 21         0.67686

 Excited State  33:      Singlet-B2    11.2599 eV  110.11 nm  f=0.2319  <S**2>=0.000
       9 -> 16        -0.15129
      10 -> 17        -0.21178
      11 -> 20         0.12990
      12 -> 21        -0.27001
      13 -> 22         0.53948
      13 -> 23        -0.13217

 Excited State  34:      Singlet-A2    11.2957 eV  109.76 nm  f=0.0000  <S**2>=0.000
       9 -> 17         0.21459
      10 -> 18         0.63023
      12 -> 22        -0.22410

 Excited State  35:      Singlet-A2    11.3477 eV  109.26 nm  f=0.0000  <S**2>=0.000
       9 -> 17         0.64298
      10 -> 18        -0.12138
      12 -> 22         0.26582

 Excited State  36:      Singlet-B1    11.4193 eV  108.57 nm  f=0.1174  <S**2>=0.000
       7 -> 14         0.69049

 Excited State  37:      Singlet-A2    11.4707 eV  108.09 nm  f=0.0000  <S**2>=0.000
       9 -> 17        -0.19199
      10 -> 18         0.25257
      12 -> 22         0.59707
      12 -> 23        -0.17653

 Excited State  38:      Singlet-B1    11.4942 eV  107.87 nm  f=0.0053  <S**2>=0.000
      11 -> 22         0.69506

 Excited State  39:      Singlet-B2    11.5194 eV  107.63 nm  f=0.0238  <S**2>=0.000
       8 -> 15         0.10304
      13 -> 22         0.12815
      13 -> 23         0.67343

 Excited State  40:      Singlet-B1    11.6719 eV  106.22 nm  f=0.0130  <S**2>=0.000
      13 -> 24         0.69272

 Excited State  41:      Singlet-B2    11.7155 eV  105.83 nm  f=0.1191  <S**2>=0.000
       8 -> 15         0.64964
       9 -> 18         0.19227
      10 -> 19         0.14437

 Excited State  42:      Singlet-A2    11.7745 eV  105.30 nm  f=0.0000  <S**2>=0.000
      12 -> 22         0.10361
      12 -> 23         0.64631
      13 -> 25        -0.21930

 Excited State  43:      Singlet-B1    11.7890 eV  105.17 nm  f=0.0199  <S**2>=0.000
      11 -> 23         0.70066

 Excited State  44:      Singlet-B2    11.8413 eV  104.71 nm  f=0.0454  <S**2>=0.000
       9 -> 18         0.59382
      10 -> 19        -0.35744

 Excited State  45:      Singlet-A1    11.8536 eV  104.60 nm  f=0.0254  <S**2>=0.000
       8 -> 16         0.69397

 Excited State  46:      Singlet-A2    11.8949 eV  104.23 nm  f=0.0000  <S**2>=0.000
      10 -> 20         0.16192
      12 -> 23         0.17440
      13 -> 25         0.65498

 Excited State  47:      Singlet-B2    11.9329 eV  103.90 nm  f=0.0063  <S**2>=0.000
       8 -> 15        -0.19422
       9 -> 18         0.28826
       9 -> 20        -0.14778
      10 -> 19         0.55581
      11 -> 24        -0.12402

 Excited State  48:      Singlet-A2    12.0120 eV  103.22 nm  f=0.0000  <S**2>=0.000
      10 -> 20         0.68185
      12 -> 23        -0.10256
      13 -> 25        -0.12605

 Excited State  49:      Singlet-A1    12.0344 eV  103.02 nm  f=0.0083  <S**2>=0.000
      11 -> 25        -0.24367
      12 -> 24         0.64776

 Excited State  50:      Singlet-B1    12.1204 eV  102.29 nm  f=0.0362  <S**2>=0.000
      10 -> 21         0.69681

 Excited State  51:      Singlet-B2    12.1437 eV  102.10 nm  f=0.0120  <S**2>=0.000
      11 -> 24         0.67519

 Excited State  52:      Singlet-A2    12.1673 eV  101.90 nm  f=0.0000  <S**2>=0.000
       7 -> 15         0.70348

 Excited State  53:      Singlet-B2    12.2477 eV  101.23 nm  f=0.0624  <S**2>=0.000
      12 -> 25         0.68443

 Excited State  54:      Singlet-A2    12.3135 eV  100.69 nm  f=0.0000  <S**2>=0.000
       9 -> 19         0.69736

 Excited State  55:      Singlet-A1    12.3333 eV  100.53 nm  f=0.0001  <S**2>=0.000
       8 -> 18         0.12276
       9 -> 21         0.14944
      10 -> 22        -0.14886
      11 -> 25         0.61295
      12 -> 24         0.17881
      13 -> 26         0.14589

 Excited State  56:      Singlet-B1    12.3520 eV  100.38 nm  f=0.0012  <S**2>=0.000
       7 -> 16        -0.12310
       8 -> 17         0.68884

 Excited State  57:      Singlet-B1    12.3700 eV  100.23 nm  f=0.0000  <S**2>=0.000
       7 -> 16         0.69149
       8 -> 17         0.11449

 Excited State  58:      Singlet-A1    12.5198 eV   99.03 nm  f=0.0055  <S**2>=0.000
       7 -> 17         0.14315
       9 -> 21        -0.32283
      10 -> 22        -0.24328
      13 -> 26         0.53751

 Excited State  59:      Singlet-A2    12.5711 eV   98.63 nm  f=0.0000  <S**2>=0.000
      13 -> 27         0.68912

 Excited State  60:      Singlet-A1    12.6138 eV   98.29 nm  f=0.0382  <S**2>=0.000
       9 -> 21         0.31324
      10 -> 22         0.44943
      10 -> 23        -0.25244
      13 -> 26         0.33396

 Excited State  61:      Singlet-B2    12.6437 eV   98.06 nm  f=0.0030  <S**2>=0.000
       9 -> 20         0.64117
      11 -> 28         0.14259
      12 -> 27        -0.21342

 Excited State  62:      Singlet-A1    12.7095 eV   97.55 nm  f=0.0330  <S**2>=0.000
       7 -> 17         0.30455
       8 -> 18        -0.35705
       9 -> 21         0.42083
      10 -> 22        -0.28288
      13 -> 29         0.10802

 Excited State  63:      Singlet-B1    12.7480 eV   97.26 nm  f=0.0111  <S**2>=0.000
      12 -> 26         0.58195
      13 -> 28        -0.39769

 Excited State  64:      Singlet-A1    12.8287 eV   96.65 nm  f=0.0003  <S**2>=0.000
       7 -> 17         0.36983
       8 -> 18         0.47793
      10 -> 23        -0.26148
      11 -> 27        -0.15799
      13 -> 29         0.14058

 Excited State  65:      Singlet-A2    12.8590 eV   96.42 nm  f=0.0000  <S**2>=0.000
      11 -> 26         0.69998

 Excited State  66:      Singlet-B1    12.9004 eV   96.11 nm  f=0.0311  <S**2>=0.000
       7 -> 18         0.11445
       9 -> 22        -0.19619
       9 -> 23        -0.10094
      12 -> 26         0.35559
      12 -> 29        -0.20984
      13 -> 28         0.49735

 Excited State  67:      Singlet-B2    12.9365 eV   95.84 nm  f=0.0646  <S**2>=0.000
       9 -> 20         0.14012
      11 -> 28         0.24869
      12 -> 27         0.63123

 Excited State  68:      Singlet-A1    12.9419 eV   95.80 nm  f=0.0045  <S**2>=0.000
       7 -> 17         0.13523
      11 -> 27         0.64312
      12 -> 28         0.12493
      13 -> 29        -0.14134

 Excited State  69:      Singlet-A1    13.0027 eV   95.35 nm  f=0.0149  <S**2>=0.000
       7 -> 17         0.27797
       8 -> 18         0.12938
      10 -> 22         0.14872
      10 -> 23         0.51211
      13 -> 29        -0.29014

 Excited State  70:      Singlet-B1    13.0499 eV   95.01 nm  f=0.0269  <S**2>=0.000
       7 -> 18         0.12268
       8 -> 19         0.10473
       9 -> 22         0.65141
       9 -> 23        -0.11057
      10 -> 25        -0.12299

 Excited State  71:      Singlet-A2    13.0593 eV   94.94 nm  f=0.0000  <S**2>=0.000
      10 -> 24         0.70524

 Excited State  72:      Singlet-A1    13.1173 eV   94.52 nm  f=0.0437  <S**2>=0.000
       8 -> 20        -0.10893
      10 -> 23        -0.10898
      11 -> 27        -0.15450
      12 -> 28         0.59092
      13 -> 29        -0.25440

 Excited State  73:      Singlet-B1    13.2657 eV   93.46 nm  f=0.0000  <S**2>=0.000
       7 -> 18         0.53141
       8 -> 19        -0.22318
      10 -> 25         0.40595

 Excited State  74:      Singlet-A1    13.2704 eV   93.43 nm  f=0.0735  <S**2>=0.000
       8 -> 20         0.19624
       9 -> 25        -0.12830
      10 -> 23         0.18522
      12 -> 28         0.33441
      13 -> 26         0.12439
      13 -> 29         0.48736

 Excited State  75:      Singlet-B1    13.2909 eV   93.29 nm  f=0.0005  <S**2>=0.000
       7 -> 18        -0.17834
       8 -> 19         0.43088
       9 -> 23        -0.22414
      10 -> 25         0.47946

 Excited State  76:      Singlet-A2    13.3129 eV   93.13 nm  f=0.0000  <S**2>=0.000
      11 -> 29         0.70353

 Excited State  77:      Singlet-B1    13.3143 eV   93.12 nm  f=0.0004  <S**2>=0.000
       8 -> 19         0.20588
       9 -> 23         0.50981
      12 -> 29        -0.43215

 Excited State  78:      Singlet-B2    13.3363 eV   92.97 nm  f=0.0608  <S**2>=0.000
       8 -> 21         0.12391
       9 -> 20        -0.13992
       9 -> 24        -0.10989
      11 -> 28         0.60387
      11 -> 31         0.11717
      12 -> 27        -0.15408
      12 -> 30        -0.16474

 Excited State  79:      Singlet-B1    13.3475 eV   92.89 nm  f=0.0324  <S**2>=0.000
       7 -> 18         0.27274
       8 -> 19         0.39722
       9 -> 23         0.22427
      10 -> 25        -0.12112
      12 -> 29         0.43695

 Excited State  80:      Singlet-A1    13.5274 eV   91.65 nm  f=0.0341  <S**2>=0.000
       7 -> 17         0.18616
       7 -> 19        -0.12367
       8 -> 18        -0.14831
       8 -> 20         0.52124
       9 -> 21        -0.14416
       9 -> 25         0.16765
      10 -> 23        -0.13570
      11 -> 30        -0.14646
      13 -> 26        -0.11001

 Excited State  81:      Singlet-B2    13.6244 eV   91.00 nm  f=0.0540  <S**2>=0.000
       8 -> 21        -0.29683
       9 -> 24         0.61119
      12 -> 30        -0.11105

 Excited State  82:      Singlet-B1    13.7067 eV   90.46 nm  f=0.1021  <S**2>=0.000
       7 -> 18         0.19025
       7 -> 20         0.19674
       8 -> 19         0.14848
       9 -> 22        -0.10740
       9 -> 23        -0.25453
      10 -> 25        -0.19365
      10 -> 27         0.44946
      12 -> 29        -0.20428
      13 -> 28        -0.16004

 Excited State  83:      Singlet-B2    13.7317 eV   90.29 nm  f=0.0320  <S**2>=0.000
       8 -> 21         0.56112
       9 -> 24         0.28585
      10 -> 26         0.28341

 Excited State  84:      Singlet-A2    13.8082 eV   89.79 nm  f=0.0000  <S**2>=0.000
      13 -> 30         0.69985

 Excited State  85:      Singlet-A1    13.8370 eV   89.60 nm  f=0.0121  <S**2>=0.000
       7 -> 19         0.25426
       8 -> 20        -0.10121
       9 -> 25         0.61950
      11 -> 30         0.12043

 Excited State  86:      Singlet-A1    13.9373 eV   88.96 nm  f=0.1279  <S**2>=0.000
       6 -> 14        -0.16506
       7 -> 17        -0.15968
       7 -> 19         0.47108
       8 -> 18         0.10732
       8 -> 20         0.30815
       9 -> 21         0.12613
      10 -> 22        -0.18130

 Excited State  87:      Singlet-B2    13.9953 eV   88.59 nm  f=0.0815  <S**2>=0.000
       8 -> 21        -0.22602
       9 -> 24        -0.11030
      10 -> 26         0.62176
      10 -> 29        -0.12430

 Excited State  88:      Singlet-A2    14.0110 eV   88.49 nm  f=0.0000  <S**2>=0.000
       8 -> 22         0.69496

 Excited State  89:      Singlet-B1    14.0628 eV   88.16 nm  f=0.0141  <S**2>=0.000
       7 -> 20         0.60019
      10 -> 27        -0.34884

 Excited State  90:      Singlet-A1    14.0703 eV   88.12 nm  f=0.0263  <S**2>=0.000
       6 -> 16        -0.15319
       7 -> 17         0.22283
       7 -> 19         0.38335
       8 -> 18        -0.16954
       8 -> 20        -0.18847
       9 -> 21        -0.16476
       9 -> 25        -0.21128
       9 -> 27         0.11360
      10 -> 22         0.13464
      11 -> 25         0.13075
      11 -> 30        -0.13506
      12 -> 24         0.11584
      13 -> 26        -0.11042

 Excited State  91:      Singlet-A2    14.1102 eV   87.87 nm  f=0.0000  <S**2>=0.000
       7 -> 21         0.69633

 Excited State  92:      Singlet-A2    14.1891 eV   87.38 nm  f=0.0000  <S**2>=0.000
       8 -> 23         0.19615
       9 -> 26        -0.22772
      10 -> 28         0.63076

 Excited State  93:      Singlet-B2    14.2082 eV   87.26 nm  f=0.0461  <S**2>=0.000
       7 -> 22        -0.14118
      10 -> 29        -0.15704
      11 -> 31         0.22431
      12 -> 30         0.60619

 Excited State  94:      Singlet-B1    14.2431 eV   87.05 nm  f=0.0894  <S**2>=0.000
      10 -> 27         0.10816
      13 -> 31         0.69249

 Excited State  95:      Singlet-A1    14.3242 eV   86.56 nm  f=0.0631  <S**2>=0.000
       6 -> 14         0.17903
       8 -> 24         0.24323
       9 -> 25        -0.10034
       9 -> 27        -0.21686
      11 -> 30         0.55943

 Excited State  96:      Singlet-A2    14.3536 eV   86.38 nm  f=0.0000  <S**2>=0.000
       8 -> 23         0.61164
       9 -> 26         0.33458

 Excited State  97:      Singlet-B1    14.4089 eV   86.05 nm  f=0.6117  <S**2>=0.000
       7 -> 18        -0.17434
       7 -> 20         0.29840
       7 -> 24        -0.13875
       8 -> 19        -0.14037
       9 -> 22         0.10767
       9 -> 23         0.19191
      10 -> 25         0.13546
      10 -> 27         0.37766
      12 -> 29         0.13322
      12 -> 36        -0.10722
      13 -> 28         0.16900
      13 -> 31        -0.12214

 Excited State  98:      Singlet-B2    14.4253 eV   85.95 nm  f=0.0742  <S**2>=0.000
      10 -> 29         0.62586
      11 -> 31         0.24681
      12 -> 30         0.10559

 Excited State  99:      Singlet-A1    14.4400 eV   85.86 nm  f=0.1196  <S**2>=0.000
       6 -> 14         0.56684
       9 -> 27         0.36641

 Excited State 100:      Singlet-A2    14.4969 eV   85.52 nm  f=0.0000  <S**2>=0.000
       8 -> 23        -0.25847
       9 -> 26         0.56152
       9 -> 29        -0.17947
      10 -> 28         0.25326

 Excited State 101:      Singlet-A1    14.5542 eV   85.19 nm  f=0.0056  <S**2>=0.000
       6 -> 14        -0.23473
       8 -> 24         0.45750
       9 -> 27         0.39102
      12 -> 31        -0.24429

 Excited State 102:      Singlet-B2    14.6082 eV   84.87 nm  f=0.0412  <S**2>=0.000
       7 -> 22         0.60429
       8 -> 25        -0.26112
       9 -> 28         0.11708
      10 -> 29        -0.12163
      11 -> 31         0.14904

 Excited State 103:      Singlet-A1    14.6863 eV   84.42 nm  f=0.0621  <S**2>=0.000
       8 -> 24         0.29933
      12 -> 31         0.61517

 Excited State 104:      Singlet-B2    14.6897 eV   84.40 nm  f=0.0007  <S**2>=0.000
       7 -> 23         0.13751
       8 -> 25         0.20994
       9 -> 28         0.65516

 Excited State 105:      Singlet-B2    14.9005 eV   83.21 nm  f=0.0162  <S**2>=0.000
       6 -> 15        -0.15511
       7 -> 22        -0.14010
       7 -> 23         0.48118
       8 -> 25        -0.40790
      11 -> 31         0.14852

 Excited State 106:      Singlet-A2    14.9030 eV   83.19 nm  f=0.0000  <S**2>=0.000
       7 -> 25         0.11065
       9 -> 26         0.10611
       9 -> 29         0.67102

 Excited State 107:      Singlet-B2    14.9739 eV   82.80 nm  f=0.0611  <S**2>=0.000
       6 -> 15         0.13365
       7 -> 22         0.16424
       7 -> 23         0.38039
       8 -> 25         0.42532
       9 -> 28        -0.21232
      10 -> 29        -0.15283
      11 -> 31         0.19089

 Excited State 108:      Singlet-B2    15.0646 eV   82.30 nm  f=0.4390  <S**2>=0.000
       6 -> 15        -0.41537
       7 -> 23        -0.22830
      11 -> 31         0.42245
      12 -> 30        -0.13683
      13 -> 34         0.14526

 Excited State 109:      Singlet-B1    15.1045 eV   82.08 nm  f=0.0324  <S**2>=0.000
       7 -> 24         0.63789
      10 -> 30         0.26876

 Excited State 110:      Singlet-A1    15.1075 eV   82.07 nm  f=0.3725  <S**2>=0.000
       6 -> 14         0.20225
       7 -> 26         0.11884
       8 -> 24         0.33586
       9 -> 27        -0.31678
      11 -> 30        -0.29298
      11 -> 42         0.10650
      12 -> 31        -0.14323
      12 -> 32         0.15305
      13 -> 36        -0.10342

 Excited State 111:      Singlet-B1    15.2237 eV   81.44 nm  f=0.0121  <S**2>=0.000
       7 -> 24        -0.25250
      10 -> 30         0.64819

 Excited State 112:      Singlet-B2    15.3029 eV   81.02 nm  f=0.0020  <S**2>=0.000
       6 -> 15         0.47287
       7 -> 22        -0.12004
       8 -> 27        -0.27866
      11 -> 31         0.19339
      12 -> 30        -0.11089
      13 -> 34         0.28698

 Excited State 113:      Singlet-A2    15.3282 eV   80.89 nm  f=0.0000  <S**2>=0.000
       7 -> 25         0.67687
      13 -> 33         0.13596

 Excited State 114:      Singlet-B1    15.3946 eV   80.54 nm  f=0.0446  <S**2>=0.000
       8 -> 26         0.65425
      13 -> 32        -0.23290

 Excited State 115:      Singlet-B2    15.4301 eV   80.35 nm  f=0.0074  <S**2>=0.000
       8 -> 27         0.60834
      13 -> 34         0.32330

 Excited State 116:      Singlet-A1    15.4987 eV   80.00 nm  f=0.0032  <S**2>=0.000
       6 -> 16         0.62826
      11 -> 33         0.11169
      12 -> 32         0.17734
      12 -> 35         0.15747

 Excited State 117:      Singlet-A2    15.5350 eV   79.81 nm  f=0.0000  <S**2>=0.000
       7 -> 25        -0.11470
      13 -> 33         0.68351

 Excited State 118:      Singlet-B1    15.5354 eV   79.81 nm  f=0.0270  <S**2>=0.000
       7 -> 28        -0.11489
       8 -> 26         0.22107
      13 -> 32         0.63635

 The electronic state is 1-A1.
 Alpha  occ. eigenvalues --   -9.89089  -9.88265  -9.88263  -0.70370  -0.60819
 Alpha  occ. eigenvalues --   -0.51893  -0.40915  -0.39047  -0.35421  -0.33519
 Alpha  occ. eigenvalues --   -0.29759  -0.29539  -0.28404
 Alpha virt. eigenvalues --    0.00701   0.03688   0.04373   0.06208   0.07812
 Alpha virt. eigenvalues --    0.09787   0.10617   0.10874   0.12368   0.13556
 Alpha virt. eigenvalues --    0.14440   0.15215   0.17449   0.17572   0.18394

 Mulliken charges:
               1
     1  C    0.427638
     2  C   -0.553150
     3  C    0.427638
     4  H   -0.051859
     5  H   -0.009828
     6  H   -0.009828
     7  H   -0.079548
     8  H   -0.079548
     9  H   -0.009828
    10  H   -0.051859
    11  H   -0.009828
 Sum of Mulliken charges =   0.00000

 Dipole moment (field-independent basis, Debye):
    X=             -0.0000    Y=             -0.0000    Z=              0.0959  Tot=              0.0959
 Quadrupole moment (field-independent basis, Debye-Ang):
   XX=            -21.6605   YY=            -22.5202   ZZ=            -22.1616
   XY=             -0.0000   XZ=              0.0000   YZ=             -0.0000

 Normal termination of Gaussian 16 at Mon Mar 21 04:15:25 2022.
