 Gaussian 16, Revision C.01,
 Gaussian 16:  EM64L-G16RevC.01  3-Jul-2019

 ----------------------------------------------------------------------
 #P TD(Nstates=10000) pbepbe/Gen SCF(maxcycles=100) Int(Grid=ultrafine)
 ----------------------------------------------------------------------

 ---------------------
 xGDB7_00001_tier4.com
 ---------------------
 Symbolic Z-matrix:
 Charge =  0 Multiplicity = 1

                         Standard orientation:
 ---------------------------------------------------------------------
 Center     Atomic      Atomic             Coordinates (Angstroms)
 Number     Number       Type             X           Y           Z
 ---------------------------------------------------------------------
      1          6           0        0.926251   -0.719055    0.000000
      2          6           0        0.000000    0.459276    0.000000
      3          8           0       -1.196998    0.387136    0.000000
      4          1           0        1.575965   -0.668678    0.877698
      5          1           0        1.575965   -0.668678   -0.877698
      6          1           0        0.366733   -1.652236    0.000000
      7          1           0        0.499813    1.451182    0.000000
 ---------------------------------------------------------------------

 SCF Done:  E(RPBE-PBE) =  -153.540700648     A.U. after   14 cycles

 Excitation energies and oscillator strengths:

 Excited State   1:      Singlet-A"     4.2108 eV  294.44 nm  f=0.0000  <S**2>=0.000
      12 -> 13         0.70729
 This state for optimization and/or second-order correction.
 Total Energy, E(TD-HF/TD-DFT) =  -153.385956537
 Copying the excited state density for this state as the 1-particle RhoCI density.

 Excited State   2:      Singlet-A'     6.1980 eV  200.04 nm  f=0.0227  <S**2>=0.000
      12 -> 14         0.70333

 Excited State   3:      Singlet-A'     6.9069 eV  179.51 nm  f=0.0697  <S**2>=0.000
      12 -> 15         0.70468

 Excited State   4:      Singlet-A"     7.8052 eV  158.85 nm  f=0.0131  <S**2>=0.000
      10 -> 13        -0.20159
      12 -> 16         0.67721

 Excited State   5:      Singlet-A"     7.8960 eV  157.02 nm  f=0.0049  <S**2>=0.000
       9 -> 13         0.10343
      10 -> 13         0.66915
      12 -> 16         0.19838

 Excited State   6:      Singlet-A'     8.0344 eV  154.32 nm  f=0.0635  <S**2>=0.000
      11 -> 13        -0.13102
      12 -> 17         0.68256
      12 -> 18         0.11058

 Excited State   7:      Singlet-A'     8.2139 eV  150.94 nm  f=0.0270  <S**2>=0.000
      11 -> 13         0.14654
      12 -> 18         0.68494

 Excited State   8:      Singlet-A'     8.5829 eV  144.45 nm  f=0.1578  <S**2>=0.000
       8 -> 13        -0.30499
      11 -> 13         0.56207
      12 -> 17         0.14139
      12 -> 18        -0.12274
      12 -> 20         0.15877

 Excited State   9:      Singlet-A"     8.6951 eV  142.59 nm  f=0.0002  <S**2>=0.000
      12 -> 19         0.70478

 Excited State  10:      Singlet-A'     8.7616 eV  141.51 nm  f=0.1076  <S**2>=0.000
      11 -> 13        -0.14706
      12 -> 20         0.68689

 Excited State  11:      Singlet-A"     9.1104 eV  136.09 nm  f=0.0001  <S**2>=0.000
       9 -> 13         0.69196

 Excited State  12:      Singlet-A'     9.2348 eV  134.26 nm  f=0.0098  <S**2>=0.000
      12 -> 21         0.70275

 Excited State  13:      Singlet-A"     9.3793 eV  132.19 nm  f=0.0066  <S**2>=0.000
      11 -> 14         0.70610

 Excited State  14:      Singlet-A"     9.8504 eV  125.87 nm  f=0.0022  <S**2>=0.000
      12 -> 22         0.70302

 Excited State  15:      Singlet-A'     9.9670 eV  124.39 nm  f=0.0305  <S**2>=0.000
       8 -> 13         0.12370
      10 -> 14         0.69292

 Excited State  16:      Singlet-A"    10.0880 eV  122.90 nm  f=0.0171  <S**2>=0.000
       7 -> 13        -0.39769
      11 -> 15         0.57943

 Excited State  17:      Singlet-A"    10.1450 eV  122.21 nm  f=0.0001  <S**2>=0.000
       7 -> 13         0.56776
      11 -> 15         0.40329

 Excited State  18:      Singlet-A'    10.3331 eV  119.99 nm  f=0.0535  <S**2>=0.000
       8 -> 13        -0.44786
      10 -> 14         0.11480
      11 -> 13        -0.16443
      12 -> 23         0.47412
      12 -> 24        -0.11516

 Excited State  19:      Singlet-A'    10.5613 eV  117.39 nm  f=0.0061  <S**2>=0.000
       8 -> 13         0.22041
      12 -> 23         0.38662
      12 -> 24         0.52811

 Excited State  20:      Singlet-A'    10.7341 eV  115.50 nm  f=0.0476  <S**2>=0.000
       8 -> 13        -0.15181
      10 -> 15         0.65957
      12 -> 24         0.11593

 Excited State  21:      Singlet-A'    10.7967 eV  114.84 nm  f=0.0692  <S**2>=0.000
       8 -> 13         0.23107
       9 -> 14         0.42885
      10 -> 15         0.18930
      11 -> 13         0.13104
      12 -> 23         0.26592
      12 -> 24        -0.32935

 Excited State  22:      Singlet-A'    10.9584 eV  113.14 nm  f=0.0733  <S**2>=0.000
       8 -> 13        -0.14890
       9 -> 14         0.50417
      10 -> 15        -0.13183
      11 -> 13        -0.10093
      11 -> 16        -0.21457
      12 -> 23        -0.15254
      12 -> 24         0.16990
      12 -> 25        -0.29157

 Excited State  23:      Singlet-A'    11.0873 eV  111.83 nm  f=0.0419  <S**2>=0.000
      11 -> 16        -0.44130
      12 -> 25         0.52525

 Excited State  24:      Singlet-A'    11.2143 eV  110.56 nm  f=0.0148  <S**2>=0.000
       8 -> 13        -0.11696
       9 -> 14         0.21761
      11 -> 13        -0.11696
      11 -> 16         0.48757
      12 -> 24         0.18761
      12 -> 25         0.33035

 Excited State  25:      Singlet-A"    11.2338 eV  110.37 nm  f=0.0113  <S**2>=0.000
       8 -> 14        -0.14869
      11 -> 17         0.67829
      11 -> 18         0.12016

 Excited State  26:      Singlet-A"    11.3933 eV  108.82 nm  f=0.1330  <S**2>=0.000
       8 -> 14         0.68035
      11 -> 17         0.15464

 Excited State  27:      Singlet-A"    11.4462 eV  108.32 nm  f=0.0012  <S**2>=0.000
      10 -> 16        -0.16851
      11 -> 17        -0.10400
      11 -> 18         0.67532

 Excited State  28:      Singlet-A"    11.6399 eV  106.52 nm  f=0.0104  <S**2>=0.000
      10 -> 16         0.67527
      11 -> 18         0.15338

 Excited State  29:      Singlet-A'    11.6417 eV  106.50 nm  f=0.0269  <S**2>=0.000
       9 -> 15         0.69254

 Excited State  30:      Singlet-A'    11.8335 eV  104.77 nm  f=0.0205  <S**2>=0.000
       7 -> 14        -0.12549
      10 -> 17         0.68243

 Excited State  31:      Singlet-A"    11.9674 eV  103.60 nm  f=0.0130  <S**2>=0.000
      12 -> 26         0.69512

 Excited State  32:      Singlet-A"    12.0066 eV  103.26 nm  f=0.0094  <S**2>=0.000
       8 -> 15        -0.10341
      11 -> 20         0.68348

 Excited State  33:      Singlet-A'    12.0613 eV  102.80 nm  f=0.0183  <S**2>=0.000
       7 -> 14         0.61432
      11 -> 19        -0.29615

 Excited State  34:      Singlet-A"    12.0673 eV  102.74 nm  f=0.0027  <S**2>=0.000
       8 -> 15         0.69009

 Excited State  35:      Singlet-A'    12.1160 eV  102.33 nm  f=0.0237  <S**2>=0.000
       7 -> 14         0.25542
      10 -> 18        -0.20980
      11 -> 19         0.58609

 Excited State  36:      Singlet-A'    12.2577 eV  101.15 nm  f=0.0979  <S**2>=0.000
       7 -> 14         0.11961
       9 -> 17         0.11623
      10 -> 18         0.62437
      10 -> 20        -0.13930
      11 -> 19         0.13056

 Excited State  37:      Singlet-A"    12.4677 eV   99.44 nm  f=0.0000  <S**2>=0.000
      11 -> 21         0.57647
      12 -> 27        -0.39846

 Excited State  38:      Singlet-A"    12.4910 eV   99.26 nm  f=0.0037  <S**2>=0.000
      10 -> 19        -0.20799
      11 -> 21         0.37770
      12 -> 27         0.55781

 Excited State  39:      Singlet-A"    12.5450 eV   98.83 nm  f=0.0009  <S**2>=0.000
       9 -> 16         0.68049
      10 -> 19        -0.16267

 Excited State  40:      Singlet-A'    12.5848 eV   98.52 nm  f=0.0022  <S**2>=0.000
       7 -> 15        -0.13380
       8 -> 16         0.12043
      10 -> 20         0.66022

 Excited State  41:      Singlet-A"    12.6204 eV   98.24 nm  f=0.0410  <S**2>=0.000
       9 -> 16         0.17094
      10 -> 19         0.63185
      11 -> 21         0.12660
      12 -> 27         0.14816

 Excited State  42:      Singlet-A'    12.7541 eV   97.21 nm  f=0.0834  <S**2>=0.000
       7 -> 15         0.57148
       9 -> 17         0.38152

 Excited State  43:      Singlet-A'    12.7876 eV   96.96 nm  f=0.0529  <S**2>=0.000
       7 -> 15        -0.36029
       8 -> 16        -0.10730
       9 -> 17         0.56326

 Excited State  44:      Singlet-A"    12.9032 eV   96.09 nm  f=0.0038  <S**2>=0.000
       6 -> 13         0.61485
       8 -> 17        -0.24153
       8 -> 18         0.13322
      11 -> 23        -0.10665

 Excited State  45:      Singlet-A'    12.9317 eV   95.88 nm  f=0.0060  <S**2>=0.000
       9 -> 18         0.32777
      12 -> 28         0.61284

 Excited State  46:      Singlet-A'    13.0381 eV   95.09 nm  f=0.0172  <S**2>=0.000
       8 -> 16        -0.33252
      10 -> 21         0.61606

 Excited State  47:      Singlet-A'    13.0643 eV   94.90 nm  f=0.0126  <S**2>=0.000
       9 -> 18         0.48670
      11 -> 22         0.34510
      12 -> 28        -0.21678
      12 -> 29         0.24252

 Excited State  48:      Singlet-A'    13.1862 eV   94.03 nm  f=0.0682  <S**2>=0.000
       8 -> 16        -0.23775
       8 -> 19         0.10626
       9 -> 18        -0.23560
      10 -> 21        -0.18108
      11 -> 22         0.50071
      12 -> 28         0.12173
      12 -> 29        -0.23823

 Excited State  49:      Singlet-A"    13.2005 eV   93.92 nm  f=0.0088  <S**2>=0.000
       6 -> 13         0.15907
       8 -> 17         0.63623
       8 -> 18         0.21586

 Excited State  50:      Singlet-A"    13.4289 eV   92.33 nm  f=0.0189  <S**2>=0.000
       7 -> 16        -0.13143
       8 -> 17        -0.10828
       8 -> 18         0.54378
       9 -> 19         0.32606
      11 -> 23         0.21744

 Excited State  51:      Singlet-A'    13.4413 eV   92.24 nm  f=0.0165  <S**2>=0.000
       7 -> 17        -0.13752
       8 -> 16         0.36472
       9 -> 20         0.43998
       9 -> 21        -0.10684
      10 -> 21         0.18116
      11 -> 22         0.22678

 Excited State  52:      Singlet-A"    13.4709 eV   92.04 nm  f=0.0012  <S**2>=0.000
       8 -> 18        -0.28148
       9 -> 19         0.62535
      11 -> 23        -0.12049

 Excited State  53:      Singlet-A'    13.5775 eV   91.32 nm  f=0.0278  <S**2>=0.000
       7 -> 17         0.21703
       7 -> 18         0.14465
       8 -> 16        -0.23542
       9 -> 20         0.52919
       9 -> 21         0.14076
      10 -> 21        -0.12623
      11 -> 22        -0.15437

 Excited State  54:      Singlet-A"    13.6091 eV   91.10 nm  f=0.0007  <S**2>=0.000
       7 -> 16         0.32191
      10 -> 22        -0.17949
      11 -> 23         0.57843

 Excited State  55:      Singlet-A'    13.6450 eV   90.86 nm  f=0.1851  <S**2>=0.000
       7 -> 17        -0.10065
       8 -> 16        -0.10565
       9 -> 18        -0.19470
       9 -> 21         0.15241
      10 -> 24        -0.10207
      12 -> 28         0.15925
      12 -> 29         0.55994
      12 -> 33         0.11681

 Excited State  56:      Singlet-A"    13.6726 eV   90.68 nm  f=0.0171  <S**2>=0.000
       7 -> 16         0.32689
      10 -> 22         0.62179

 Excited State  57:      Singlet-A"    13.7293 eV   90.31 nm  f=0.0392  <S**2>=0.000
       6 -> 13        -0.10219
       7 -> 16         0.47515
       8 -> 18         0.15847
       8 -> 20        -0.28421
      10 -> 22        -0.24108
      11 -> 23        -0.24215
      11 -> 24         0.10364
      11 -> 25         0.12654

 Excited State  58:      Singlet-A"    13.8667 eV   89.41 nm  f=0.0011  <S**2>=0.000
       8 -> 20         0.15365
      11 -> 24         0.68641

 Excited State  59:      Singlet-A'    13.9038 eV   89.17 nm  f=0.0261  <S**2>=0.000
       7 -> 17         0.61004
       7 -> 18        -0.13696
       8 -> 19        -0.15082
       9 -> 21        -0.16243
      12 -> 30         0.13482

 Excited State  60:      Singlet-A"    14.0417 eV   88.30 nm  f=0.0242  <S**2>=0.000
       7 -> 16         0.10277
       8 -> 20         0.55183
      11 -> 25         0.36081

 Excited State  61:      Singlet-A'    14.0447 eV   88.28 nm  f=0.0268  <S**2>=0.000
       7 -> 18        -0.37360
       8 -> 19        -0.35194
       9 -> 21         0.44119
      12 -> 30        -0.11856

 Excited State  62:      Singlet-A'    14.0547 eV   88.22 nm  f=0.0599  <S**2>=0.000
       7 -> 17         0.12110
       7 -> 18        -0.18217
       8 -> 16         0.11620
       8 -> 19         0.51922
       9 -> 21         0.29599
      10 -> 23        -0.11572
      10 -> 24         0.17593
      12 -> 30         0.10203

 Excited State  63:      Singlet-A'    14.1797 eV   87.44 nm  f=0.0074  <S**2>=0.000
       6 -> 14        -0.10697
       7 -> 18         0.38965
       7 -> 20         0.12903
       8 -> 19        -0.11758
       9 -> 21         0.32198
      10 -> 23         0.27913
      12 -> 30         0.28010

 Excited State  64:      Singlet-A'    14.3169 eV   86.60 nm  f=0.0208  <S**2>=0.000
       7 -> 18        -0.28542
       7 -> 20        -0.12921
      10 -> 23         0.32095
      12 -> 30         0.44670
      12 -> 32         0.15738

 Excited State  65:      Singlet-A"    14.3548 eV   86.37 nm  f=0.0002  <S**2>=0.000
       7 -> 19        -0.12317
      11 -> 25        -0.12454
      12 -> 31         0.67850

 Excited State  66:      Singlet-A"    14.3776 eV   86.23 nm  f=0.0687  <S**2>=0.000
       7 -> 19         0.20254
       8 -> 20        -0.12622
       8 -> 21         0.45937
      11 -> 25         0.42819
      12 -> 31         0.13428

 Excited State  67:      Singlet-A"    14.4542 eV   85.78 nm  f=0.0601  <S**2>=0.000
       7 -> 19        -0.37758
       8 -> 21         0.50027
       9 -> 22         0.12109
      11 -> 25        -0.21731
      12 -> 31        -0.13889

 Excited State  68:      Singlet-A'    14.4635 eV   85.72 nm  f=0.1096  <S**2>=0.000
       6 -> 14        -0.22725
       6 -> 15         0.10857
       9 -> 23        -0.12916
      10 -> 23         0.46373
      12 -> 30        -0.36489
      12 -> 32         0.10421

 Excited State  69:      Singlet-A'    14.5162 eV   85.41 nm  f=0.0073  <S**2>=0.000
       6 -> 14         0.58168
       7 -> 20        -0.12736
       9 -> 23        -0.10680
      10 -> 23         0.15911
      12 -> 30        -0.10455
      12 -> 32        -0.22481

 Excited State  70:      Singlet-A'    14.5511 eV   85.21 nm  f=0.0754  <S**2>=0.000
       6 -> 14         0.16241
      10 -> 24        -0.40460
      12 -> 32         0.49740

 Excited State  71:      Singlet-A"    14.5911 eV   84.97 nm  f=0.0014  <S**2>=0.000
       7 -> 19         0.30455
       9 -> 22         0.63042

 Excited State  72:      Singlet-A'    14.6350 eV   84.72 nm  f=0.1560  <S**2>=0.000
       6 -> 14         0.12622
       8 -> 19        -0.12035
       8 -> 22         0.16608
      10 -> 24         0.49145
      12 -> 32         0.37131

 Excited State  73:      Singlet-A'    14.7380 eV   84.13 nm  f=0.0049  <S**2>=0.000
       6 -> 14         0.10371
       6 -> 15        -0.10896
       7 -> 20         0.55738
      10 -> 25         0.32277

 Excited State  74:      Singlet-A"    14.7676 eV   83.96 nm  f=0.2134  <S**2>=0.000
       7 -> 19         0.39816
       8 -> 20         0.15103
       8 -> 21         0.14110
       9 -> 22        -0.26476
      11 -> 25        -0.22907
      12 -> 34        -0.34427

 Excited State  75:      Singlet-A'    14.8375 eV   83.56 nm  f=0.0016  <S**2>=0.000
       6 -> 15         0.12751
       7 -> 20        -0.26764
      10 -> 25         0.59348
      12 -> 33        -0.18416

 Excited State  76:      Singlet-A"    15.0223 eV   82.53 nm  f=0.1167  <S**2>=0.000
       7 -> 19         0.17202
       8 -> 20         0.10793
      11 -> 25        -0.15320
      12 -> 34         0.60397

 Excited State  77:      Singlet-A'    15.0682 eV   82.28 nm  f=0.0610  <S**2>=0.000
       7 -> 21         0.20715
       8 -> 22        -0.35934
       9 -> 23         0.26816
      10 -> 25         0.11096
      11 -> 26        -0.19450
      12 -> 33         0.43177

 Excited State  78:      Singlet-A'    15.1136 eV   82.03 nm  f=0.0660  <S**2>=0.000
       6 -> 15        -0.11795
       7 -> 21         0.59974
       9 -> 23         0.16914
      11 -> 26         0.15986
      12 -> 33        -0.19767

 Excited State  79:      Singlet-A'    15.2330 eV   81.39 nm  f=0.0492  <S**2>=0.000
       6 -> 15        -0.13976
       7 -> 21        -0.25237
       9 -> 23         0.46623
       9 -> 24        -0.13324
      11 -> 26         0.35856
      12 -> 35         0.10903

 Excited State  80:      Singlet-A'    15.2667 eV   81.21 nm  f=0.0230  <S**2>=0.000
       6 -> 15        -0.14503
       8 -> 22         0.44611
       9 -> 24         0.26916
      12 -> 33         0.30266
      12 -> 35         0.20858
      12 -> 36         0.12216

 Excited State  81:      Singlet-A'    15.4291 eV   80.36 nm  f=0.1138  <S**2>=0.000
       6 -> 15        -0.15306
       8 -> 22        -0.29731
       9 -> 23        -0.23780
       9 -> 24         0.24635
       9 -> 25        -0.11356
      11 -> 26         0.40278
      12 -> 35         0.18746

 Excited State  82:      Singlet-A'    15.4833 eV   80.08 nm  f=0.0410  <S**2>=0.000
       9 -> 23         0.19298
       9 -> 24         0.51586
       9 -> 25        -0.13576
      11 -> 26        -0.14759
      11 -> 27        -0.23792
      12 -> 33        -0.11900
      12 -> 35        -0.17454
      12 -> 36        -0.13510

 Excited State  83:      Singlet-A"    15.5740 eV   79.61 nm  f=0.0015  <S**2>=0.000
       8 -> 23         0.69409

 Excited State  84:      Singlet-A'    15.6069 eV   79.44 nm  f=0.0267  <S**2>=0.000
       6 -> 15         0.50998
       6 -> 17         0.11324
       7 -> 20         0.10238
       7 -> 23         0.10095
       9 -> 25        -0.12591
      12 -> 35         0.32765

 Excited State  85:      Singlet-A'    15.6693 eV   79.13 nm  f=0.0393  <S**2>=0.000
       6 -> 15        -0.20753
       7 -> 23        -0.10975
       9 -> 25        -0.20767
      11 -> 26        -0.24334
      11 -> 27         0.23068
      12 -> 33        -0.15213
      12 -> 35         0.41033
      12 -> 36        -0.24374

 Excited State  86:      Singlet-A"    15.7482 eV   78.73 nm  f=0.0001  <S**2>=0.000
       7 -> 22         0.59053
       8 -> 24        -0.11758
      10 -> 26         0.36346

 Excited State  87:      Singlet-A'    15.7710 eV   78.62 nm  f=0.0404  <S**2>=0.000
       9 -> 25         0.54336
      11 -> 27        -0.28407
      12 -> 35         0.19310
      12 -> 36        -0.22928

 Excited State  88:      Singlet-A"    15.8123 eV   78.41 nm  f=0.0011  <S**2>=0.000
       8 -> 24         0.67600
      10 -> 26         0.18638

 Excited State  89:      Singlet-A"    15.8798 eV   78.08 nm  f=0.0839  <S**2>=0.000
       6 -> 16         0.15541
       7 -> 22        -0.33842
       8 -> 24        -0.12681
       8 -> 25         0.13965
      10 -> 26         0.53730

 Excited State  90:      Singlet-A'    15.9102 eV   77.93 nm  f=0.1007  <S**2>=0.000
       6 -> 18        -0.13411
       7 -> 24        -0.11429
       9 -> 24         0.18695
       9 -> 25         0.27114
      11 -> 27         0.51453
      12 -> 36        -0.12577
      12 -> 37        -0.10999

 Excited State  91:      Singlet-A'    16.0374 eV   77.31 nm  f=0.0297  <S**2>=0.000
       6 -> 17         0.13819
       7 -> 23        -0.28852
       9 -> 25         0.12793
      12 -> 33        -0.12886
      12 -> 35         0.11782
      12 -> 36         0.52724
      12 -> 37        -0.10584

 Excited State  92:      Singlet-A"    16.1049 eV   76.99 nm  f=0.0077  <S**2>=0.000
       6 -> 16         0.66432
       8 -> 25        -0.16191

 Excited State  93:      Singlet-A"    16.1360 eV   76.84 nm  f=0.0290  <S**2>=0.000
      11 -> 28         0.70046

 Excited State  94:      Singlet-A"    16.2495 eV   76.30 nm  f=0.0426  <S**2>=0.000
       6 -> 16         0.14594
       8 -> 25         0.46567
      10 -> 27         0.48298

 Excited State  95:      Singlet-A"    16.3040 eV   76.05 nm  f=0.0001  <S**2>=0.000
       5 -> 13         0.10465
       8 -> 25        -0.44039
      10 -> 27         0.50358
      11 -> 29        -0.11906

 Excited State  96:      Singlet-A'    16.3229 eV   75.96 nm  f=0.0041  <S**2>=0.000
       6 -> 17         0.59655
       6 -> 18         0.18382
      12 -> 37         0.24587

 Excited State  97:      Singlet-A'    16.3523 eV   75.82 nm  f=0.0099  <S**2>=0.000
       6 -> 17         0.19782
       6 -> 18         0.16317
       7 -> 23         0.47047
      12 -> 36         0.11385
      12 -> 37        -0.40849

 Excited State  98:      Singlet-A'    16.4963 eV   75.16 nm  f=0.0221  <S**2>=0.000
       6 -> 18        -0.34376
       7 -> 23         0.31515
       7 -> 24        -0.22651
      12 -> 37         0.38298

 Excited State  99:      Singlet-A"    16.5056 eV   75.12 nm  f=0.0062  <S**2>=0.000
      12 -> 38         0.70023

 Excited State 100:      Singlet-A'    16.5594 eV   74.87 nm  f=0.0920  <S**2>=0.000
       6 -> 17         0.11543
       6 -> 18        -0.36806
       7 -> 24         0.46599
      10 -> 28        -0.30708
      12 -> 37        -0.11398

 Excited State 101:      Singlet-A"    16.6685 eV   74.38 nm  f=0.0477  <S**2>=0.000
       5 -> 13         0.17188
       8 -> 25        -0.10208
       9 -> 26         0.12096
      11 -> 29         0.65013

 Excited State 102:      Singlet-A'    16.7213 eV   74.15 nm  f=0.1241  <S**2>=0.000
       6 -> 17         0.10339
       6 -> 18        -0.25308
       7 -> 23        -0.18321
       7 -> 24        -0.33663
       7 -> 25         0.34433
      12 -> 36        -0.10426
      12 -> 37        -0.24195

 Excited State 103:      Singlet-A"    16.7669 eV   73.95 nm  f=0.0018  <S**2>=0.000
       9 -> 26         0.69004
      11 -> 29        -0.12004

 Excited State 104:      Singlet-A'    16.7939 eV   73.83 nm  f=0.0998  <S**2>=0.000
       6 -> 17         0.14643
       6 -> 18        -0.22242
       7 -> 24         0.11090
      10 -> 28         0.59820
      12 -> 39        -0.12037

 The electronic state is 1-A'.
 Alpha  occ. eigenvalues --  -18.77130  -9.99060  -9.91208  -0.96339  -0.68568
 Alpha  occ. eigenvalues --   -0.52232  -0.43383  -0.40962  -0.39333  -0.35849
 Alpha  occ. eigenvalues --   -0.33827  -0.21926
 Alpha virt. eigenvalues --   -0.07354   0.00510   0.03266   0.06735   0.07306
 Alpha virt. eigenvalues --    0.08050   0.10099   0.10207   0.12067   0.14377
 Alpha virt. eigenvalues --    0.16076   0.17088   0.18482   0.22236   0.24007

 Mulliken charges:
               1
     1  C    0.341200
     2  C    0.036102
     3  O   -0.274869
     4  H    0.057895
     5  H    0.057895
     6  H   -0.041892
     7  H   -0.176330
 Sum of Mulliken charges =  -0.00000

 Dipole moment (field-independent basis, Debye):
    X=              2.7412    Y=             -0.3734    Z=             -0.0000  Tot=              2.7666
 Quadrupole moment (field-independent basis, Debye-Ang):
   XX=            -21.3430   YY=            -18.2482   ZZ=            -18.0761
   XY=              0.6988   XZ=             -0.0000   YZ=              0.0000

 Normal termination of Gaussian 16 at Mon Mar 21 20:20:43 2022.
