 Gaussian 16, Revision C.01,
 Gaussian 16:  EM64L-G16RevC.01  3-Jul-2019

 ----------------------------------------------------------------------
 #P TD(Nstates=10000) pbepbe/Gen SCF(maxcycles=100) Int(Grid=ultrafine)
 ----------------------------------------------------------------------

 ---------------------
 xGDB7_00001_tier4.com
 ---------------------
 Symbolic Z-matrix:
 Charge =  0 Multiplicity = 1

                         Standard orientation:
 ---------------------------------------------------------------------
 Center     Atomic      Atomic             Coordinates (Angstroms)
 Number     Number       Type             X           Y           Z
 ---------------------------------------------------------------------
      1          9           0        0.000000    1.098813   -0.289120
      2          6           0       -0.000000   -0.000000    0.499944
      3          9           0       -0.000000   -1.098813   -0.289120
      4          1           0       -0.911346    0.000000    1.102246
      5          1           0        0.911346   -0.000000    1.102246
 ---------------------------------------------------------------------

 SCF Done:  E(RPBE-PBE) =  -238.582254412     A.U. after   11 cycles

 Excitation energies and oscillator strengths:

 Excited State   1:      Singlet-B1     8.3961 eV  147.67 nm  f=0.0220  <S**2>=0.000
      13 -> 14         0.70645
 This state for optimization and/or second-order correction.
 Total Energy, E(TD-HF/TD-DFT) =  -238.273703339
 Copying the excited state density for this state as the 1-particle RhoCI density.

 Excited State   2:      Singlet-A2     9.2746 eV  133.68 nm  f=0.0000  <S**2>=0.000
      13 -> 15         0.70612

 Excited State   3:      Singlet-B1     9.7086 eV  127.71 nm  f=0.0195  <S**2>=0.000
      13 -> 16         0.70533

 Excited State   4:      Singlet-B2     9.8621 eV  125.72 nm  f=0.0338  <S**2>=0.000
      12 -> 14         0.70422

 Excited State   5:      Singlet-A1     9.9025 eV  125.21 nm  f=0.0593  <S**2>=0.000
      11 -> 14        -0.14185
      13 -> 17         0.68748

 Excited State   6:      Singlet-A2    10.2978 eV  120.40 nm  f=0.0000  <S**2>=0.000
      10 -> 14         0.70691

 Excited State   7:      Singlet-A1    10.3339 eV  119.98 nm  f=0.0043  <S**2>=0.000
      11 -> 14         0.68745
      13 -> 17         0.13272

 Excited State   8:      Singlet-A1    10.8585 eV  114.18 nm  f=0.0142  <S**2>=0.000
      12 -> 15         0.69357

 Excited State   9:      Singlet-B1    11.1810 eV  110.89 nm  f=0.0027  <S**2>=0.000
      10 -> 15         0.51945
      13 -> 18        -0.47572

 Excited State  10:      Singlet-B2    11.2328 eV  110.38 nm  f=0.0004  <S**2>=0.000
      11 -> 15         0.39775
      12 -> 16         0.58179

 Excited State  11:      Singlet-A2    11.2419 eV  110.29 nm  f=0.0000  <S**2>=0.000
      12 -> 17         0.70699

 Excited State  12:      Singlet-B1    11.2453 eV  110.25 nm  f=0.0698  <S**2>=0.000
      10 -> 15         0.47533
      13 -> 18         0.51373

 Excited State  13:      Singlet-B2    11.5393 eV  107.45 nm  f=0.0634  <S**2>=0.000
      10 -> 17         0.15048
      11 -> 15         0.52778
      12 -> 16        -0.36134
      13 -> 22         0.19995

 Excited State  14:      Singlet-A1    11.5986 eV  106.90 nm  f=0.1095  <S**2>=0.000
      11 -> 16         0.70103

 Excited State  15:      Singlet-A2    11.6227 eV  106.67 nm  f=0.0000  <S**2>=0.000
      10 -> 16         0.70119

 Excited State  16:      Singlet-B1    11.6442 eV  106.48 nm  f=0.0443  <S**2>=0.000
      11 -> 17         0.70253

 Excited State  17:      Singlet-B2    11.7237 eV  105.75 nm  f=0.0562  <S**2>=0.000
      10 -> 17         0.68862
      11 -> 15        -0.10442

 Excited State  18:      Singlet-A2    11.7762 eV  105.28 nm  f=0.0000  <S**2>=0.000
      13 -> 19         0.70066

 Excited State  19:      Singlet-B1    12.1354 eV  102.17 nm  f=0.0125  <S**2>=0.000
      13 -> 21         0.70231

 Excited State  20:      Singlet-B2    12.2146 eV  101.51 nm  f=0.0171  <S**2>=0.000
      11 -> 15        -0.14532
      12 -> 18         0.11074
      13 -> 22         0.66065

 Excited State  21:      Singlet-A1    12.4220 eV   99.81 nm  f=0.0546  <S**2>=0.000
      13 -> 20         0.67459

 Excited State  22:      Singlet-B2    12.5842 eV   98.52 nm  f=0.0008  <S**2>=0.000
      12 -> 18         0.69170

 Excited State  23:      Singlet-A2    12.8556 eV   96.44 nm  f=0.0000  <S**2>=0.000
      13 -> 23         0.69903

 Excited State  24:      Singlet-A2    12.9910 eV   95.44 nm  f=0.0000  <S**2>=0.000
      10 -> 18         0.70152

 Excited State  25:      Singlet-A1    12.9952 eV   95.41 nm  f=0.0153  <S**2>=0.000
      11 -> 18         0.70011

 Excited State  26:      Singlet-A1    13.2203 eV   93.78 nm  f=0.0049  <S**2>=0.000
      12 -> 19         0.70514

 Excited State  27:      Singlet-A2    13.5575 eV   91.45 nm  f=0.0000  <S**2>=0.000
      12 -> 20         0.70662

 Excited State  28:      Singlet-B2    13.5733 eV   91.34 nm  f=0.0668  <S**2>=0.000
      11 -> 19        -0.28266
      12 -> 21         0.64501

 Excited State  29:      Singlet-B1    13.5876 eV   91.25 nm  f=0.0125  <S**2>=0.000
      12 -> 22         0.68826
      13 -> 24         0.12747

 Excited State  30:      Singlet-B1    13.6847 eV   90.60 nm  f=0.0010  <S**2>=0.000
      10 -> 19         0.67625
      12 -> 22        -0.11889
      13 -> 24         0.15297

 Excited State  31:      Singlet-B2    13.7379 eV   90.25 nm  f=0.0003  <S**2>=0.000
      10 -> 20        -0.26703
      11 -> 19         0.58338
      12 -> 21         0.25902

 Excited State  32:      Singlet-B1    13.7943 eV   89.88 nm  f=0.0074  <S**2>=0.000
       8 -> 14         0.30313
      10 -> 19        -0.12989
      11 -> 20         0.11035
      13 -> 24         0.60571

 Excited State  33:      Singlet-B2    13.8270 eV   89.67 nm  f=0.0003  <S**2>=0.000
       7 -> 14         0.69673

 Excited State  34:      Singlet-B1    13.8896 eV   89.26 nm  f=0.1203  <S**2>=0.000
       8 -> 14         0.62365
      11 -> 20        -0.11102
      13 -> 24        -0.26475

 Excited State  35:      Singlet-A1    13.9325 eV   88.99 nm  f=0.0376  <S**2>=0.000
       9 -> 14         0.66136
      11 -> 21         0.17989

 Excited State  36:      Singlet-B1    13.9584 eV   88.82 nm  f=0.0049  <S**2>=0.000
      11 -> 20         0.68218
      13 -> 24        -0.12893

 Excited State  37:      Singlet-A2    13.9685 eV   88.76 nm  f=0.0000  <S**2>=0.000
      11 -> 22         0.70635

 Excited State  38:      Singlet-A1    14.0010 eV   88.55 nm  f=0.0007  <S**2>=0.000
       9 -> 14        -0.10340
      10 -> 22         0.44494
      11 -> 21         0.53460

 Excited State  39:      Singlet-A2    14.0512 eV   88.24 nm  f=0.0000  <S**2>=0.000
      10 -> 21         0.70481

 Excited State  40:      Singlet-A1    14.2581 eV   86.96 nm  f=0.0030  <S**2>=0.000
       9 -> 14         0.10442
      10 -> 22         0.41650
      11 -> 21        -0.35932
      12 -> 23        -0.40817

 Excited State  41:      Singlet-B2    14.3444 eV   86.43 nm  f=0.0041  <S**2>=0.000
      10 -> 20         0.59729
      11 -> 19         0.18546
      11 -> 23        -0.17455
      12 -> 24        -0.18579

 Excited State  42:      Singlet-A1    14.4670 eV   85.70 nm  f=0.0013  <S**2>=0.000
       7 -> 15        -0.11798
       8 -> 17        -0.14973
       9 -> 14         0.11761
       9 -> 16         0.11101
      10 -> 22         0.30275
      11 -> 21        -0.16174
      12 -> 23         0.55203

 Excited State  43:      Singlet-B1    14.6809 eV   84.45 nm  f=0.0843  <S**2>=0.000
      10 -> 23        -0.15425
      13 -> 25         0.66306

 Excited State  44:      Singlet-A2    14.7001 eV   84.34 nm  f=0.0000  <S**2>=0.000
       8 -> 15         0.70304

 Excited State  45:      Singlet-B2    14.7074 eV   84.30 nm  f=0.0001  <S**2>=0.000
       7 -> 16         0.11947
       9 -> 15        -0.32406
      10 -> 20         0.10377
      11 -> 23         0.59862

 Excited State  46:      Singlet-B1    14.8086 eV   83.72 nm  f=0.0000  <S**2>=0.000
      10 -> 23         0.68412
      13 -> 25         0.14487

 Excited State  47:      Singlet-B2    14.8215 eV   83.65 nm  f=0.1185  <S**2>=0.000
       9 -> 15         0.60805
      11 -> 23         0.29550
      13 -> 26         0.14191

 Excited State  48:      Singlet-A1    14.8644 eV   83.41 nm  f=0.0186  <S**2>=0.000
       7 -> 15         0.59867
       8 -> 17         0.12030
       9 -> 16         0.31884

 Excited State  49:      Singlet-B2    15.1589 eV   81.79 nm  f=0.0726  <S**2>=0.000
       7 -> 16         0.65973
      11 -> 23        -0.10023
      12 -> 24         0.20871

 Excited State  50:      Singlet-B1    15.2089 eV   81.52 nm  f=0.0383  <S**2>=0.000
       8 -> 16        -0.29031
       9 -> 17         0.63565

 Excited State  51:      Singlet-A2    15.2209 eV   81.46 nm  f=0.0000  <S**2>=0.000
       7 -> 17         0.70472

 Excited State  52:      Singlet-A1    15.2854 eV   81.11 nm  f=0.1189  <S**2>=0.000
       7 -> 15        -0.25839
       7 -> 19         0.10270
       9 -> 16         0.59631
       9 -> 18         0.10560
      13 -> 27        -0.13710

 Excited State  53:      Singlet-B1    15.3070 eV   81.00 nm  f=0.0788  <S**2>=0.000
       8 -> 16         0.61793
       8 -> 18         0.14151
       9 -> 17         0.28199

 Excited State  54:      Singlet-B2    15.5335 eV   79.82 nm  f=0.1391  <S**2>=0.000
       9 -> 15        -0.10561
      12 -> 24         0.18338
      13 -> 26         0.66859

 Excited State  55:      Singlet-A1    15.5649 eV   79.66 nm  f=0.0011  <S**2>=0.000
       8 -> 17         0.55327
      11 -> 24         0.38511

 Excited State  56:      Singlet-B2    15.7117 eV   78.91 nm  f=0.0684  <S**2>=0.000
       7 -> 16        -0.13524
       7 -> 18        -0.16822
      10 -> 20         0.11171
      12 -> 24         0.52535
      12 -> 25         0.33408
      13 -> 26        -0.13247

 Excited State  57:      Singlet-A2    15.7811 eV   78.57 nm  f=0.0000  <S**2>=0.000
      10 -> 24         0.68004
      13 -> 28        -0.17852

 Excited State  58:      Singlet-A1    15.7877 eV   78.53 nm  f=0.0572  <S**2>=0.000
       8 -> 17        -0.32197
      11 -> 24         0.56902
      13 -> 27         0.13760
      13 -> 30        -0.12292

 Excited State  59:      Singlet-A2    15.9366 eV   77.80 nm  f=0.0000  <S**2>=0.000
      10 -> 24         0.17267
      13 -> 28         0.68207

 Excited State  60:      Singlet-A1    15.9694 eV   77.64 nm  f=0.0400  <S**2>=0.000
       9 -> 18         0.11579
      11 -> 24        -0.12501
      11 -> 25        -0.12325
      13 -> 27         0.65222

 Excited State  61:      Singlet-B1    16.0575 eV   77.21 nm  f=0.0014  <S**2>=0.000
       8 -> 18        -0.10559
      13 -> 29         0.68554

 Excited State  62:      Singlet-B2    16.1503 eV   76.77 nm  f=0.0701  <S**2>=0.000
       7 -> 18         0.22876
      12 -> 24        -0.22304
      12 -> 25         0.60616

 Excited State  63:      Singlet-A1    16.4678 eV   75.29 nm  f=0.0316  <S**2>=0.000
      11 -> 25         0.66640
      13 -> 30        -0.17788

 Excited State  64:      Singlet-A2    16.5085 eV   75.10 nm  f=0.0000  <S**2>=0.000
      10 -> 25         0.70188

 Excited State  65:      Singlet-A1    16.6264 eV   74.57 nm  f=0.0393  <S**2>=0.000
       7 -> 19        -0.17558
       9 -> 18         0.65597

 Excited State  66:      Singlet-B2    16.6918 eV   74.28 nm  f=0.0293  <S**2>=0.000
       7 -> 18         0.60708
       7 -> 21         0.10045
       9 -> 19        -0.22392
      11 -> 28         0.10826
      12 -> 24         0.12598
      12 -> 25        -0.10142

 Excited State  67:      Singlet-B1    16.7819 eV   73.88 nm  f=0.1221  <S**2>=0.000
       8 -> 18         0.64370
       9 -> 20        -0.13006
      12 -> 26         0.17466

 Excited State  68:      Singlet-B1    16.9928 eV   72.96 nm  f=0.0268  <S**2>=0.000
       8 -> 18        -0.15114
      12 -> 26         0.68375

 Excited State  69:      Singlet-A1    17.0360 eV   72.78 nm  f=0.0001  <S**2>=0.000
       6 -> 14         0.10315
       7 -> 19         0.21334
       8 -> 20        -0.14108
      11 -> 25         0.11601
      13 -> 30         0.61241

 Excited State  70:      Singlet-A2    17.1839 eV   72.15 nm  f=0.0000  <S**2>=0.000
       8 -> 19         0.70115

 Excited State  71:      Singlet-B2    17.2946 eV   71.69 nm  f=0.0032  <S**2>=0.000
       7 -> 18         0.10608
       7 -> 21         0.20968
       9 -> 19         0.61916
       9 -> 23        -0.10816
      11 -> 28         0.13657

 Excited State  72:      Singlet-A2    17.3208 eV   71.58 nm  f=0.0000  <S**2>=0.000
      11 -> 26        -0.10843
      12 -> 27         0.69598

 Excited State  73:      Singlet-A2    17.3465 eV   71.47 nm  f=0.0000  <S**2>=0.000
      11 -> 26         0.69379
      12 -> 27         0.10834

 Excited State  74:      Singlet-A1    17.3992 eV   71.26 nm  f=0.0014  <S**2>=0.000
       7 -> 19        -0.30677
      10 -> 26         0.35432
      12 -> 28         0.50797

 Excited State  75:      Singlet-A1    17.4466 eV   71.06 nm  f=0.0151  <S**2>=0.000
       8 -> 20         0.10977
       9 -> 21         0.21590
      10 -> 26         0.52273
      12 -> 28        -0.40307

 Excited State  76:      Singlet-B2    17.4699 eV   70.97 nm  f=0.0001  <S**2>=0.000
       8 -> 22         0.27934
      12 -> 29         0.64118

 Excited State  77:      Singlet-B1    17.5155 eV   70.79 nm  f=0.0050  <S**2>=0.000
       7 -> 22        -0.18806
       8 -> 21        -0.46118
       9 -> 20         0.48801

 Excited State  78:      Singlet-A2    17.5215 eV   70.76 nm  f=0.0000  <S**2>=0.000
       7 -> 20         0.38584
       9 -> 22         0.58826

 Excited State  79:      Singlet-A2    17.5249 eV   70.75 nm  f=0.0000  <S**2>=0.000
       7 -> 20         0.58630
       9 -> 22        -0.38742

 Excited State  80:      Singlet-A1    17.5329 eV   70.72 nm  f=0.0761  <S**2>=0.000
       6 -> 14        -0.20668
       7 -> 19        -0.33014
       7 -> 23         0.11212
       8 -> 20         0.14173
       9 -> 21         0.34584
      10 -> 26        -0.29468
      11 -> 29        -0.22358
      12 -> 28        -0.12438
      13 -> 30         0.14638

 Excited State  81:      Singlet-B1    17.5526 eV   70.64 nm  f=0.0151  <S**2>=0.000
       7 -> 22         0.57180
       8 -> 21        -0.38524
       9 -> 20        -0.13779

 Excited State  82:      Singlet-B2    17.5704 eV   70.56 nm  f=0.0993  <S**2>=0.000
       7 -> 21         0.27593
       8 -> 22         0.58007
      12 -> 29        -0.28269

 Excited State  83:      Singlet-B1    17.5713 eV   70.56 nm  f=0.0295  <S**2>=0.000
       7 -> 22         0.35946
       8 -> 21         0.35320
       9 -> 20         0.42153
      11 -> 27        -0.22401

 Excited State  84:      Singlet-A1    17.5988 eV   70.45 nm  f=0.0103  <S**2>=0.000
       6 -> 14         0.12144
       7 -> 19         0.16726
       8 -> 20        -0.30150
       9 -> 21         0.53784
      11 -> 29         0.14093
      12 -> 28         0.12796
      13 -> 30        -0.11363

 Excited State  85:      Singlet-B2    17.6038 eV   70.43 nm  f=0.0151  <S**2>=0.000
       7 -> 21         0.55594
       8 -> 22        -0.24876
      10 -> 27         0.15238
      11 -> 28        -0.27972

 Excited State  86:      Singlet-A1    17.6725 eV   70.16 nm  f=0.0298  <S**2>=0.000
       6 -> 14         0.26733
       7 -> 19         0.14460
       8 -> 20         0.56062
       9 -> 21         0.15245
      11 -> 29         0.12183
      12 -> 28         0.16394
      13 -> 31        -0.12279

 Excited State  87:      Singlet-B1    17.7558 eV   69.83 nm  f=0.0138  <S**2>=0.000
       9 -> 20         0.18669
      11 -> 27         0.65933

 Excited State  88:      Singlet-B2    17.7826 eV   69.72 nm  f=0.0715  <S**2>=0.000
      10 -> 27         0.66098
      11 -> 28         0.23636

 Excited State  89:      Singlet-A1    17.8512 eV   69.45 nm  f=0.0031  <S**2>=0.000
       6 -> 14         0.49464
       7 -> 19        -0.27499
       7 -> 23         0.28979
      11 -> 29         0.10215
      12 -> 28        -0.10097
      13 -> 31         0.13961

 Excited State  90:      Singlet-A2    17.9348 eV   69.13 nm  f=0.0000  <S**2>=0.000
      10 -> 29         0.70448

 Excited State  91:      Singlet-B1    17.9367 eV   69.12 nm  f=0.0433  <S**2>=0.000
      10 -> 28         0.69556

 Excited State  92:      Singlet-A1    18.0201 eV   68.80 nm  f=0.0278  <S**2>=0.000
       6 -> 14        -0.20905
       7 -> 19        -0.13075
      11 -> 29         0.61976
      13 -> 30         0.11495

 Excited State  93:      Singlet-B2    18.0301 eV   68.77 nm  f=0.0074  <S**2>=0.000
       7 -> 21         0.16684
       7 -> 24         0.13955
       9 -> 23         0.33543
      10 -> 27        -0.15520
      11 -> 28         0.51982

 Excited State  94:      Singlet-A2    18.2745 eV   67.85 nm  f=0.0000  <S**2>=0.000
       8 -> 23         0.70415

 Excited State  95:      Singlet-A1    18.3227 eV   67.67 nm  f=0.1041  <S**2>=0.000
       7 -> 23        -0.16563
       8 -> 20         0.11331
      13 -> 31         0.66539

 Excited State  96:      Singlet-A2    18.3559 eV   67.54 nm  f=0.0000  <S**2>=0.000
      12 -> 30         0.70658

 Excited State  97:      Singlet-B1    18.3987 eV   67.39 nm  f=0.0089  <S**2>=0.000
      13 -> 32         0.69693

 Excited State  98:      Singlet-B2    18.4322 eV   67.26 nm  f=0.0000  <S**2>=0.000
       6 -> 15        -0.22714
       7 -> 24        -0.19816
       9 -> 23         0.55973
      10 -> 30        -0.11553
      11 -> 28        -0.17122

 Excited State  99:      Singlet-A1    18.6369 eV   66.53 nm  f=0.0634  <S**2>=0.000
       6 -> 14        -0.15867
       6 -> 16        -0.16735
       7 -> 19         0.14140
       7 -> 23         0.53241
       9 -> 24        -0.32514

 Excited State 100:      Singlet-B1    18.7442 eV   66.15 nm  f=0.0021  <S**2>=0.000
      11 -> 30         0.69128

 Excited State 101:      Singlet-A2    18.7634 eV   66.08 nm  f=0.0000  <S**2>=0.000
      13 -> 33         0.70564

 Excited State 102:      Singlet-B2    18.7911 eV   65.98 nm  f=0.0000  <S**2>=0.000
       6 -> 15         0.59130
       9 -> 23         0.14101
      10 -> 30        -0.31432

 Excited State 103:      Singlet-B2    18.8622 eV   65.73 nm  f=0.0120  <S**2>=0.000
       6 -> 15         0.24907
       7 -> 24        -0.22416
      10 -> 30         0.60012

 Excited State 104:      Singlet-B1    19.0556 eV   65.06 nm  f=0.0206  <S**2>=0.000
       8 -> 24        -0.20002
      13 -> 34         0.66956

 Excited State 105:      Singlet-A1    19.0947 eV   64.93 nm  f=0.0243  <S**2>=0.000
       6 -> 16         0.62613
       9 -> 24        -0.26795

 Excited State 106:      Singlet-B1    19.1115 eV   64.87 nm  f=0.0081  <S**2>=0.000
       6 -> 17         0.58143
       8 -> 24        -0.35045
      13 -> 34        -0.17069

 Excited State 107:      Singlet-A2    19.2948 eV   64.26 nm  f=0.0000  <S**2>=0.000
      13 -> 35         0.70498

 Excited State 108:      Singlet-B1    19.3980 eV   63.92 nm  f=0.0053  <S**2>=0.000
       6 -> 17         0.36926
       8 -> 24         0.56529
       8 -> 25         0.10187
      13 -> 34         0.12593

 Excited State 109:      Singlet-B2    19.6739 eV   63.02 nm  f=0.1037  <S**2>=0.000
       7 -> 24         0.51533
       7 -> 25         0.27760
      10 -> 31         0.20917
      12 -> 32         0.18642
      13 -> 36        -0.10682

 Excited State 110:      Singlet-A2    19.7437 eV   62.80 nm  f=0.0000  <S**2>=0.000
      12 -> 31         0.70534

 Excited State 111:      Singlet-B2    19.9007 eV   62.30 nm  f=0.0719  <S**2>=0.000
      10 -> 31        -0.15772
      12 -> 32         0.66725

 Excited State 112:      Singlet-A1    19.9703 eV   62.08 nm  f=0.0009  <S**2>=0.000
       6 -> 16         0.13452
       7 -> 23         0.13032
       7 -> 28         0.12051
       9 -> 24         0.30220
       9 -> 25         0.52079
      11 -> 32         0.18142

 Excited State 113:      Singlet-B2    20.0431 eV   61.86 nm  f=0.0004  <S**2>=0.000
       7 -> 24        -0.12230
       7 -> 25         0.59890
      10 -> 31        -0.32932

 Excited State 114:      Singlet-A1    20.0487 eV   61.84 nm  f=0.0016  <S**2>=0.000
       6 -> 16        -0.10633
       6 -> 18        -0.15178
       7 -> 23        -0.10617
       7 -> 28        -0.13111
       9 -> 24        -0.31191
       9 -> 25         0.42870
      11 -> 32        -0.32550
      12 -> 33        -0.10391

 Excited State 115:      Singlet-B1    20.0518 eV   61.83 nm  f=0.0001  <S**2>=0.000
       8 -> 25         0.67581
      11 -> 31        -0.14311

 Excited State 116:      Singlet-B1    20.1533 eV   61.52 nm  f=0.0409  <S**2>=0.000
       8 -> 25         0.13926
      11 -> 31         0.68365

 Excited State 117:      Singlet-A1    20.3343 eV   60.97 nm  f=0.0017  <S**2>=0.000
      11 -> 32        -0.24794
      12 -> 33         0.65166

 Excited State 118:      Singlet-B2    20.3578 eV   60.90 nm  f=0.0521  <S**2>=0.000
       7 -> 24        -0.17240
       7 -> 25         0.19051
      10 -> 31         0.51662
      11 -> 33        -0.19171
      12 -> 34        -0.23635
      13 -> 36         0.16095

 Excited State 119:      Singlet-A2    20.3849 eV   60.82 nm  f=0.0000  <S**2>=0.000
      10 -> 32         0.70283

 Excited State 120:      Singlet-A1    20.4092 eV   60.75 nm  f=0.1302  <S**2>=0.000
       6 -> 18        -0.10982
       7 -> 23        -0.11347
       7 -> 28        -0.19067
       9 -> 24        -0.21173
      11 -> 32         0.51954
      12 -> 33         0.23935
      12 -> 35        -0.11962

 Excited State 121:      Singlet-A1    20.5487 eV   60.34 nm  f=0.0181  <S**2>=0.000
       6 -> 18         0.64236
       9 -> 25         0.14903
       9 -> 29        -0.12445

 Excited State 122:      Singlet-B2    20.5676 eV   60.28 nm  f=0.0491  <S**2>=0.000
      11 -> 33        -0.24187
      12 -> 34         0.63298
      13 -> 36         0.10369

 Excited State 123:      Singlet-B2    20.7204 eV   59.84 nm  f=0.0312  <S**2>=0.000
       8 -> 26        -0.13094
      10 -> 31         0.14929
      11 -> 33         0.62571
      12 -> 34         0.15688
      13 -> 36         0.13286

 Excited State 124:      Singlet-B1    20.7997 eV   59.61 nm  f=0.0560  <S**2>=0.000
       7 -> 26         0.24523
      10 -> 33         0.64965

 Excited State 125:      Singlet-A1    20.8446 eV   59.48 nm  f=0.0345  <S**2>=0.000
       7 -> 28        -0.10277
      12 -> 35         0.68034

 Excited State 126:      Singlet-A2    20.9143 eV   59.28 nm  f=0.0000  <S**2>=0.000
       9 -> 26         0.70230

 Excited State 127:      Singlet-B2    20.9370 eV   59.22 nm  f=0.0137  <S**2>=0.000
       6 -> 19         0.29825
       8 -> 26         0.59186
      13 -> 36         0.18025

 The electronic state is 1-A1.
 Alpha  occ. eigenvalues --  -24.29173 -24.29170 -10.05867  -1.15080  -1.09216
 Alpha  occ. eigenvalues --   -0.64015  -0.50137  -0.50038  -0.50022  -0.37302
 Alpha  occ. eigenvalues --   -0.36995  -0.35603  -0.30179
 Alpha virt. eigenvalues --    0.00527   0.03446   0.05108   0.05734   0.10430
 Alpha virt. eigenvalues --    0.12947   0.14147   0.14294   0.14381   0.16962
 Alpha virt. eigenvalues --    0.20292   0.23301   0.26864   0.28087   0.28433

 Mulliken charges:
               1
     1  F   -0.366791
     2  C    1.129181
     3  F   -0.366791
     4  H   -0.197800
     5  H   -0.197800
 Sum of Mulliken charges =   0.00000

 Dipole moment (field-independent basis, Debye):
    X=              0.0000    Y=              0.0000    Z=              1.8258  Tot=              1.8258
 Quadrupole moment (field-independent basis, Debye-Ang):
   XX=            -15.6652   YY=            -19.2424   ZZ=            -15.7171
   XY=             -0.0000   XZ=             -0.0000   YZ=              0.0000

 Normal termination of Gaussian 16 at Mon Mar 21 20:20:10 2022.
