 Gaussian 16, Revision C.01,
 Gaussian 16:  EM64L-G16RevC.01  3-Jul-2019

 ----------------------------------------------------------------------
 #P TD(Nstates=10000) pbepbe/Gen SCF(maxcycles=100) Int(Grid=ultrafine)
 ----------------------------------------------------------------------

 ---------------------
 xGDB7_00001_tier4.com
 ---------------------
 Symbolic Z-matrix:
 Charge =  0 Multiplicity = 1

                         Standard orientation:
 ---------------------------------------------------------------------
 Center     Atomic      Atomic             Coordinates (Angstroms)
 Number     Number       Type             X           Y           Z
 ---------------------------------------------------------------------
      1          6           0        0.000000    0.000000   -0.524273
      2          8           0        0.000000    0.000000    0.670793
      3          1           0        0.000000    0.939221   -1.110351
      4          1           0       -0.000000   -0.939221   -1.110351
 ---------------------------------------------------------------------

 SCF Done:  E(RPBE-PBE) =  -114.293855903     A.U. after   11 cycles

 Excitation energies and oscillator strengths:

 Excited State   1:      Singlet-A2     3.8985 eV  318.03 nm  f=0.0000  <S**2>=0.000
       8 ->  9         0.70748
 This state for optimization and/or second-order correction.
 Total Energy, E(TD-HF/TD-DFT) =  -114.150589024
 Copying the excited state density for this state as the 1-particle RhoCI density.

 Excited State   2:      Singlet-B2     6.5454 eV  189.42 nm  f=0.0323  <S**2>=0.000
       8 -> 10         0.70597

 Excited State   3:      Singlet-A1     8.1428 eV  152.26 nm  f=0.0899  <S**2>=0.000
       8 -> 11         0.70377

 Excited State   4:      Singlet-B2     8.2031 eV  151.14 nm  f=0.0447  <S**2>=0.000
       8 -> 12         0.70329

 Excited State   5:      Singlet-A2     8.8393 eV  140.26 nm  f=0.0000  <S**2>=0.000
       8 -> 13         0.70695

 Excited State   6:      Singlet-B1     8.9570 eV  138.42 nm  f=0.0006  <S**2>=0.000
       6 ->  9         0.70460

 Excited State   7:      Singlet-B2     9.4027 eV  131.86 nm  f=0.0356  <S**2>=0.000
       8 -> 14         0.68808
       8 -> 15         0.14634

 Excited State   8:      Singlet-A1     9.5937 eV  129.24 nm  f=0.0562  <S**2>=0.000
       7 ->  9         0.57236
       8 -> 16        -0.39914

 Excited State   9:      Singlet-A2     9.8759 eV  125.54 nm  f=0.0000  <S**2>=0.000
       5 ->  9         0.70625

 Excited State  10:      Singlet-B2    10.1281 eV  122.42 nm  f=0.0189  <S**2>=0.000
       8 -> 14        -0.13964
       8 -> 15         0.68946

 Excited State  11:      Singlet-B1    10.5363 eV  117.67 nm  f=0.0311  <S**2>=0.000
       7 -> 10         0.70633

 Excited State  12:      Singlet-A1    10.9986 eV  112.73 nm  f=0.1378  <S**2>=0.000
       6 -> 10        -0.36242
       7 ->  9         0.32025
       8 -> 16         0.49039

 Excited State  13:      Singlet-B1    11.1098 eV  111.60 nm  f=0.0146  <S**2>=0.000
       8 -> 17         0.70374

 Excited State  14:      Singlet-A1    11.5457 eV  107.39 nm  f=0.1412  <S**2>=0.000
       6 -> 10         0.60099
       7 ->  9         0.18820
       8 -> 16         0.27515

 Excited State  15:      Singlet-A2    11.9191 eV  104.02 nm  f=0.0000  <S**2>=0.000
       8 -> 18         0.69996

 Excited State  16:      Singlet-A2    12.1049 eV  102.43 nm  f=0.0000  <S**2>=0.000
       7 -> 11         0.70020

 Excited State  17:      Singlet-B1    12.2583 eV  101.14 nm  f=0.0576  <S**2>=0.000
       7 -> 12         0.70015

 Excited State  18:      Singlet-B2    12.6370 eV   98.11 nm  f=0.1053  <S**2>=0.000
       5 -> 10         0.69522

 Excited State  19:      Singlet-B2    12.9044 eV   96.08 nm  f=0.0714  <S**2>=0.000
       6 -> 11         0.69801

 Excited State  20:      Singlet-A1    12.9779 eV   95.54 nm  f=0.0722  <S**2>=0.000
       6 -> 12         0.55123
       7 -> 13        -0.43022

 Excited State  21:      Singlet-A1    13.0815 eV   94.78 nm  f=0.0831  <S**2>=0.000
       5 -> 11         0.13104
       6 -> 12         0.43640
       7 -> 13         0.52771

 Excited State  22:      Singlet-B1    13.2912 eV   93.28 nm  f=0.0038  <S**2>=0.000
       4 ->  9        -0.15529
       7 -> 14         0.68909

 Excited State  23:      Singlet-B1    13.6287 eV   90.97 nm  f=0.0227  <S**2>=0.000
       6 -> 13         0.70144

 Excited State  24:      Singlet-B2    13.6764 eV   90.66 nm  f=0.0010  <S**2>=0.000
       8 -> 19         0.69535

 Excited State  25:      Singlet-B1    13.8062 eV   89.80 nm  f=0.0000  <S**2>=0.000
       4 ->  9         0.41313
       7 -> 14         0.11446
       7 -> 15         0.55862

 Excited State  26:      Singlet-A1    13.9701 eV   88.75 nm  f=0.1728  <S**2>=0.000
       5 -> 11         0.11227
       6 -> 14         0.23664
       8 -> 20         0.64302

 Excited State  27:      Singlet-A2    14.1285 eV   87.75 nm  f=0.0000  <S**2>=0.000
       7 -> 16         0.70657

 Excited State  28:      Singlet-A1    14.1616 eV   87.55 nm  f=0.0474  <S**2>=0.000
       6 -> 14         0.65535
       8 -> 20        -0.22581

 Excited State  29:      Singlet-B2    14.2297 eV   87.13 nm  f=0.0084  <S**2>=0.000
       5 -> 12         0.69950

 Excited State  30:      Singlet-A1    14.5012 eV   85.50 nm  f=0.0056  <S**2>=0.000
       4 -> 10         0.15250
       5 -> 11         0.62055
       6 -> 15         0.21760
       7 -> 13        -0.10227

 Excited State  31:      Singlet-B2    14.5523 eV   85.20 nm  f=0.0591  <S**2>=0.000
       5 -> 14        -0.10881
       8 -> 21         0.68858

 Excited State  32:      Singlet-B1    14.6143 eV   84.84 nm  f=0.2327  <S**2>=0.000
       4 ->  9         0.50804
       5 -> 17        -0.14306
       7 -> 15        -0.42055

 Excited State  33:      Singlet-A2    14.8699 eV   83.38 nm  f=0.0000  <S**2>=0.000
       5 -> 13         0.70681

 Excited State  34:      Singlet-A1    14.8903 eV   83.26 nm  f=0.0155  <S**2>=0.000
       5 -> 11        -0.18260
       6 -> 15         0.65188
       8 -> 22         0.11972

 Excited State  35:      Singlet-B2    14.9351 eV   83.02 nm  f=0.0012  <S**2>=0.000
       6 -> 16         0.69367

 Excited State  36:      Singlet-B2    15.1169 eV   82.02 nm  f=0.0143  <S**2>=0.000
       5 -> 14         0.25972
       7 -> 17         0.64434
       8 -> 23         0.10782

 Excited State  37:      Singlet-B2    15.4596 eV   80.20 nm  f=0.0214  <S**2>=0.000
       5 -> 14        -0.11304
       8 -> 23         0.68945

 Excited State  38:      Singlet-A1    15.6192 eV   79.38 nm  f=0.0752  <S**2>=0.000
       4 -> 10         0.10360
       7 -> 18        -0.16183
       8 -> 22         0.65275

 Excited State  39:      Singlet-B2    15.7576 eV   78.68 nm  f=0.2365  <S**2>=0.000
       5 -> 14         0.52889
       5 -> 15         0.38613
       7 -> 17        -0.19735

 Excited State  40:      Singlet-A2    15.8830 eV   78.06 nm  f=0.0000  <S**2>=0.000
       6 -> 17         0.70694

 Excited State  41:      Singlet-B1    16.0622 eV   77.19 nm  f=0.0885  <S**2>=0.000
       8 -> 24         0.69756

 Excited State  42:      Singlet-A1    16.0772 eV   77.12 nm  f=0.0161  <S**2>=0.000
       4 -> 10         0.17304
       5 -> 16         0.54384
       7 -> 18         0.40024

 Excited State  43:      Singlet-A1    16.1434 eV   76.80 nm  f=0.0150  <S**2>=0.000
       4 -> 10         0.50822
       5 -> 16         0.16699
       7 -> 18        -0.40514
       8 -> 22        -0.13163

 Excited State  44:      Singlet-B2    16.2900 eV   76.11 nm  f=0.2304  <S**2>=0.000
       5 -> 14        -0.32363
       5 -> 15         0.58499
       7 -> 17         0.14706

 Excited State  45:      Singlet-A2    16.6634 eV   74.41 nm  f=0.0000  <S**2>=0.000
       8 -> 26         0.70690

 Excited State  46:      Singlet-B2    16.7522 eV   74.01 nm  f=0.0005  <S**2>=0.000
       8 -> 25         0.70072

 Excited State  47:      Singlet-B1    16.7830 eV   73.87 nm  f=0.0020  <S**2>=0.000
       5 -> 17        -0.11602
       6 -> 18         0.69394

 Excited State  48:      Singlet-A1    16.9252 eV   73.25 nm  f=0.0199  <S**2>=0.000
       4 -> 10        -0.36355
       4 -> 12        -0.16926
       5 -> 11         0.14243
       5 -> 16         0.37532
       7 -> 18        -0.33131
       8 -> 27        -0.14082

 Excited State  49:      Singlet-B1    17.4194 eV   71.18 nm  f=0.3104  <S**2>=0.000
       4 ->  9         0.11594
       5 -> 17         0.66074

 Excited State  50:      Singlet-B2    17.5669 eV   70.58 nm  f=0.0272  <S**2>=0.000
       4 -> 11         0.70114

 Excited State  51:      Singlet-A1    17.6552 eV   70.23 nm  f=0.0879  <S**2>=0.000
       4 -> 12         0.65769
       5 -> 16         0.10455
       6 -> 19        -0.10156
       8 -> 27         0.10031

 Excited State  52:      Singlet-B1    17.7120 eV   70.00 nm  f=0.0076  <S**2>=0.000
       4 -> 13         0.10192
       7 -> 19         0.69392

 Excited State  53:      Singlet-A2    17.9067 eV   69.24 nm  f=0.0000  <S**2>=0.000
       5 -> 18        -0.27818
       7 -> 20         0.64998

 Excited State  54:      Singlet-A2    17.9359 eV   69.13 nm  f=0.0000  <S**2>=0.000
       5 -> 18         0.64985
       7 -> 20         0.27823

 Excited State  55:      Singlet-B1    18.2325 eV   68.00 nm  f=0.0027  <S**2>=0.000
       4 -> 13         0.68502
       7 -> 21         0.11531

 Excited State  56:      Singlet-A1    18.4902 eV   67.05 nm  f=0.0156  <S**2>=0.000
       6 -> 19         0.61795
       8 -> 27         0.32141

 Excited State  57:      Singlet-B1    18.5378 eV   66.88 nm  f=0.0594  <S**2>=0.000
       7 -> 21         0.68725

 Excited State  58:      Singlet-B2    18.7141 eV   66.25 nm  f=0.0191  <S**2>=0.000
       6 -> 20         0.70064

 Excited State  59:      Singlet-A1    18.8351 eV   65.83 nm  f=0.0541  <S**2>=0.000
       4 -> 14         0.63663
       6 -> 21         0.19299
       8 -> 27         0.17678

 Excited State  60:      Singlet-A1    19.1974 eV   64.58 nm  f=0.0005  <S**2>=0.000
       4 -> 14        -0.17286
       4 -> 15        -0.35857
       6 -> 19        -0.19661
       6 -> 21         0.43159
       8 -> 27         0.29938

 Excited State  61:      Singlet-A2    19.4353 eV   63.79 nm  f=0.0000  <S**2>=0.000
       7 -> 22         0.70639

 Excited State  62:      Singlet-B2    19.4838 eV   63.63 nm  f=0.0091  <S**2>=0.000
       4 -> 16         0.65188
       5 -> 19        -0.22239
       8 -> 28         0.10762

 Excited State  63:      Singlet-A1    19.5021 eV   63.57 nm  f=0.0164  <S**2>=0.000
       4 -> 14        -0.19225
       4 -> 15         0.59100
       6 -> 21         0.27046
       8 -> 27         0.11908

 Excited State  64:      Singlet-B1    19.6739 eV   63.02 nm  f=0.1350  <S**2>=0.000
       7 -> 23         0.68538

 Excited State  65:      Singlet-B2    19.6742 eV   63.02 nm  f=0.0007  <S**2>=0.000
       5 -> 19         0.46237
       8 -> 28         0.52420

 Excited State  66:      Singlet-A1    19.7422 eV   62.80 nm  f=0.0461  <S**2>=0.000
       5 -> 20         0.17790
       6 -> 19         0.19064
       6 -> 21         0.40468
       6 -> 25        -0.23385
       7 -> 26         0.20282
       8 -> 27        -0.36795

 Excited State  67:      Singlet-B2    19.9135 eV   62.26 nm  f=0.1072  <S**2>=0.000
       4 -> 16         0.23032
       5 -> 19         0.46397
       5 -> 21         0.13894
       8 -> 28        -0.43555

 Excited State  68:      Singlet-A1    20.0256 eV   61.91 nm  f=0.0354  <S**2>=0.000
       5 -> 20         0.66614
       6 -> 21        -0.10145
       6 -> 25         0.12370
       8 -> 27         0.10359

 Excited State  69:      Singlet-B2    20.0719 eV   61.77 nm  f=0.0183  <S**2>=0.000
       6 -> 22        -0.30721
       7 -> 24         0.62430

 Excited State  70:      Singlet-A1    20.2717 eV   61.16 nm  f=0.0144  <S**2>=0.000
       6 -> 23         0.70105

 Excited State  71:      Singlet-B2    20.3534 eV   60.92 nm  f=0.0507  <S**2>=0.000
       6 -> 22         0.60412
       7 -> 24         0.26706
       8 -> 30         0.20859

 Excited State  72:      Singlet-A2    20.4971 eV   60.49 nm  f=0.0000  <S**2>=0.000
       4 -> 17         0.70466

 Excited State  73:      Singlet-B2    20.5779 eV   60.25 nm  f=0.0102  <S**2>=0.000
       5 -> 21         0.68742

 Excited State  74:      Singlet-A1    20.8361 eV   59.50 nm  f=0.0003  <S**2>=0.000
       6 -> 25         0.19951
       7 -> 26         0.60567
       8 -> 29        -0.25834

 Excited State  75:      Singlet-A2    20.8445 eV   59.48 nm  f=0.0000  <S**2>=0.000
       6 -> 24         0.70542

 Excited State  76:      Singlet-B1    20.8578 eV   59.44 nm  f=0.0021  <S**2>=0.000
       7 -> 25         0.69605

 Excited State  77:      Singlet-B2    21.0574 eV   58.88 nm  f=0.0716  <S**2>=0.000
       5 -> 23        -0.24202
       6 -> 22        -0.11822
       8 -> 30         0.61927
       8 -> 32        -0.13903

 Excited State  78:      Singlet-A2    21.0856 eV   58.80 nm  f=0.0000  <S**2>=0.000
       8 -> 31         0.70509

 Excited State  79:      Singlet-A1    21.2158 eV   58.44 nm  f=0.0965  <S**2>=0.000
       7 -> 26         0.23566
       8 -> 29         0.63504

 Excited State  80:      Singlet-B1    21.3203 eV   58.15 nm  f=0.0408  <S**2>=0.000
       4 -> 18         0.67421
       6 -> 26        -0.20019

 Excited State  81:      Singlet-B1    21.5433 eV   57.55 nm  f=0.0008  <S**2>=0.000
       4 -> 18         0.19165
       6 -> 26         0.67377

 Excited State  82:      Singlet-B2    21.5613 eV   57.50 nm  f=0.0537  <S**2>=0.000
       5 -> 23         0.64069
       8 -> 30         0.16230
       8 -> 32        -0.21272

 Excited State  83:      Singlet-A1    22.0559 eV   56.21 nm  f=0.0064  <S**2>=0.000
       4 -> 19         0.26213
       5 -> 22         0.62164

 Excited State  84:      Singlet-B1    22.1597 eV   55.95 nm  f=0.0539  <S**2>=0.000
       5 -> 24         0.69258

 Excited State  85:      Singlet-B2    22.3865 eV   55.38 nm  f=0.1586  <S**2>=0.000
       5 -> 23         0.12188
       5 -> 25         0.23768
       6 -> 27        -0.14038
       8 -> 30         0.11586
       8 -> 32         0.61167

 Excited State  86:      Singlet-A2    22.4152 eV   55.31 nm  f=0.0000  <S**2>=0.000
       7 -> 27         0.70576

 Excited State  87:      Singlet-A2    22.6715 eV   54.69 nm  f=0.0000  <S**2>=0.000
       5 -> 26         0.70596

 Excited State  88:      Singlet-A1    22.7851 eV   54.41 nm  f=0.4749  <S**2>=0.000
       4 -> 19         0.21122
       6 -> 25         0.56007
       7 -> 26        -0.11868
       8 -> 27        -0.17480

 Excited State  89:      Singlet-B2    23.1720 eV   53.51 nm  f=0.0461  <S**2>=0.000
       4 -> 20         0.24951
       5 -> 25         0.45803
       6 -> 27         0.46319

 Excited State  90:      Singlet-B2    23.3393 eV   53.12 nm  f=0.0374  <S**2>=0.000
       4 -> 20         0.65260
       5 -> 25        -0.22255
       6 -> 27        -0.11954

 Excited State  91:      Singlet-A1    23.4196 eV   52.94 nm  f=0.0038  <S**2>=0.000
       4 -> 19         0.53331
       4 -> 21         0.33145
       5 -> 22        -0.13171
       5 -> 27        -0.16548
       6 -> 25        -0.15672

 Excited State  92:      Singlet-B2    23.5599 eV   52.63 nm  f=0.1948  <S**2>=0.000
       5 -> 25        -0.39200
       6 -> 27         0.49254
       6 -> 29         0.12727
       8 -> 30         0.10220
       8 -> 32         0.18984

 Excited State  93:      Singlet-B1    23.6043 eV   52.53 nm  f=0.0001  <S**2>=0.000
       3 ->  9        -0.22789
       7 -> 28         0.66742

 Excited State  94:      Singlet-B1    23.8231 eV   52.04 nm  f=0.1219  <S**2>=0.000
       3 ->  9        -0.10385
       7 -> 30        -0.12013
       8 -> 33         0.67277

 Excited State  95:      Singlet-A1    24.3084 eV   51.00 nm  f=0.0848  <S**2>=0.000
       4 -> 19        -0.17541
       4 -> 21         0.49990
       4 -> 23         0.13518
       6 -> 28        -0.40991

 Excited State  96:      Singlet-A2    24.4430 eV   50.72 nm  f=0.0000  <S**2>=0.000
       8 -> 34         0.70609

 Excited State  97:      Singlet-A1    24.6386 eV   50.32 nm  f=0.0142  <S**2>=0.000
       4 -> 19        -0.14445
       4 -> 21         0.23578
       4 -> 23         0.31006
       5 -> 27        -0.19105
       6 -> 28         0.45808
       6 -> 30        -0.14246
       7 -> 31        -0.16167

 Excited State  98:      Singlet-A1    24.7695 eV   50.06 nm  f=0.0313  <S**2>=0.000
       4 -> 21         0.12789
       4 -> 23        -0.12336
       4 -> 25        -0.10019
       5 -> 27         0.58105
       6 -> 28         0.21078
       7 -> 31        -0.24448

 Excited State  99:      Singlet-A2    24.8236 eV   49.95 nm  f=0.0000  <S**2>=0.000
       7 -> 29         0.70655

 Excited State 100:      Singlet-A1    24.8597 eV   49.87 nm  f=0.0352  <S**2>=0.000
       4 -> 19         0.13412
       4 -> 21        -0.15940
       4 -> 23         0.59073
       5 -> 27         0.21778
       7 -> 31         0.16346

 Excited State 101:      Singlet-B1    24.8668 eV   49.86 nm  f=0.0589  <S**2>=0.000
       3 ->  9        -0.41351
       7 -> 28        -0.14165
       7 -> 30         0.53918

 Excited State 102:      Singlet-B2    25.0019 eV   49.59 nm  f=0.0437  <S**2>=0.000
       4 -> 22         0.68337
       5 -> 28         0.13305

 Excited State 103:      Singlet-B1    25.1782 eV   49.24 nm  f=0.0076  <S**2>=0.000
       3 ->  9         0.45676
       4 -> 26         0.13431
       6 -> 31         0.22940
       7 -> 28         0.14636
       7 -> 30         0.39241
       7 -> 32         0.15765
       8 -> 33         0.11476

 Excited State 104:      Singlet-A2    25.3500 eV   48.91 nm  f=0.0000  <S**2>=0.000
       4 -> 24         0.70654

 Excited State 105:      Singlet-A1    25.4583 eV   48.70 nm  f=0.0019  <S**2>=0.000
       4 -> 25         0.10031
       5 -> 27         0.15502
       6 -> 28         0.16796
       6 -> 30        -0.35921
       7 -> 31         0.51217

 Excited State 106:      Singlet-B2    25.6922 eV   48.26 nm  f=0.0229  <S**2>=0.000
       4 -> 22        -0.12881
       5 -> 28         0.50892
       6 -> 29         0.45867

 Excited State 107:      Singlet-B1    25.9011 eV   47.87 nm  f=0.0225  <S**2>=0.000
       4 -> 26        -0.12736
       6 -> 31        -0.46836
       7 -> 32         0.50653

 Excited State 108:      Singlet-B2    25.9791 eV   47.72 nm  f=0.2611  <S**2>=0.000
       5 -> 28        -0.44751
       6 -> 29         0.50423

 Excited State 109:      Singlet-B1    26.0625 eV   47.57 nm  f=0.0725  <S**2>=0.000
       4 -> 26         0.66080
       6 -> 31        -0.21604

 Excited State 110:      Singlet-A1    26.4261 eV   46.92 nm  f=0.4043  <S**2>=0.000
       4 -> 21         0.10746
       4 -> 25         0.34902
       5 -> 29        -0.14919
       6 -> 28         0.11512
       6 -> 30         0.48027
       6 -> 32        -0.10130
       7 -> 31         0.17705
       7 -> 34        -0.11219

 Excited State 111:      Singlet-A1    26.6549 eV   46.51 nm  f=0.0087  <S**2>=0.000
       4 -> 25         0.46589
       5 -> 29         0.47136
       6 -> 30        -0.14404
       7 -> 31        -0.12502

 Excited State 112:      Singlet-B1    26.7103 eV   46.42 nm  f=0.4343  <S**2>=0.000
       3 ->  9        -0.18972
       4 -> 26         0.14427
       6 -> 31         0.40735
       7 -> 30        -0.16932
       7 -> 32         0.45613
       8 -> 33        -0.14199

 Excited State 113:      Singlet-A1    26.8581 eV   46.16 nm  f=0.0149  <S**2>=0.000
       3 -> 10        -0.27956
       6 -> 32         0.63991

 Excited State 114:      Singlet-A1    26.9053 eV   46.08 nm  f=0.0202  <S**2>=0.000
       3 -> 10         0.63709
       4 -> 25         0.11434
       6 -> 32         0.25600

 Excited State 115:      Singlet-B2    27.0084 eV   45.91 nm  f=0.0000  <S**2>=0.000
       5 -> 30         0.68800

 Excited State 116:      Singlet-A2    27.1228 eV   45.71 nm  f=0.0000  <S**2>=0.000
       5 -> 31         0.70671

 Excited State 117:      Singlet-A1    27.5141 eV   45.06 nm  f=0.0004  <S**2>=0.000
       3 -> 12        -0.11491
       4 -> 25        -0.29436
       4 -> 28         0.14734
       5 -> 29         0.46446
       6 -> 30         0.21355
       7 -> 31         0.18523
       7 -> 34        -0.15811
       8 -> 36        -0.15916

 Excited State 118:      Singlet-B2    27.7595 eV   44.66 nm  f=0.1259  <S**2>=0.000
       4 -> 27         0.30315
       5 -> 32        -0.16483
       7 -> 33         0.60495

 Excited State 119:      Singlet-B2    27.8695 eV   44.49 nm  f=0.0050  <S**2>=0.000
       4 -> 27         0.56487
       5 -> 32         0.34977
       7 -> 33        -0.19561
       8 -> 35         0.11919

 Excited State 120:      Singlet-B2    28.2474 eV   43.89 nm  f=0.0139  <S**2>=0.000
       4 -> 27        -0.18175
       5 -> 32         0.55293
       7 -> 33         0.25182
       8 -> 35        -0.29703

 Excited State 121:      Singlet-A2    28.4741 eV   43.54 nm  f=0.0000  <S**2>=0.000
       6 -> 33         0.70636

 Excited State 122:      Singlet-B2    28.5536 eV   43.42 nm  f=0.0000  <S**2>=0.000
       3 -> 11         0.70260

 Excited State 123:      Singlet-A1    28.7701 eV   43.09 nm  f=0.0141  <S**2>=0.000
       3 -> 12         0.59647
       4 -> 28         0.32212
       7 -> 34         0.14402

 Excited State 124:      Singlet-A1    28.9268 eV   42.86 nm  f=0.0002  <S**2>=0.000
       4 -> 28        -0.35702
       7 -> 34         0.44891
       8 -> 36        -0.37090

 Excited State 125:      Singlet-A1    29.0768 eV   42.64 nm  f=0.0000  <S**2>=0.000
       3 -> 12        -0.28571
       4 -> 28         0.38142
       7 -> 34         0.43864
       8 -> 36         0.19701

 Excited State 126:      Singlet-B2    29.1072 eV   42.60 nm  f=0.0082  <S**2>=0.000
       4 -> 27        -0.16882
       4 -> 29        -0.16505
       5 -> 32         0.18175
       7 -> 33         0.11765
       8 -> 35         0.59372
       8 -> 37         0.14190

 Excited State 127:      Singlet-B1    29.2333 eV   42.41 nm  f=0.0131  <S**2>=0.000
       3 -> 13         0.20658
       6 -> 34         0.67272

 Excited State 128:      Singlet-B1    29.3485 eV   42.25 nm  f=0.0005  <S**2>=0.000
       3 -> 13         0.67017
       6 -> 34        -0.21211

 Excited State 129:      Singlet-B2    29.6302 eV   41.84 nm  f=0.0000  <S**2>=0.000
       4 -> 29         0.21621
       8 -> 37         0.66259

 Excited State 130:      Singlet-A1    29.6368 eV   41.83 nm  f=0.0021  <S**2>=0.000
       3 -> 14         0.63636
       4 -> 28        -0.12217
       8 -> 36         0.26808

 Excited State 131:      Singlet-B1    29.7965 eV   41.61 nm  f=0.0115  <S**2>=0.000
       5 -> 33         0.69535

 Excited State 132:      Singlet-A1    30.0494 eV   41.26 nm  f=0.0086  <S**2>=0.000
       3 -> 12         0.11757
       3 -> 14        -0.26575

 The electronic state is 1-A1.
 Alpha  occ. eigenvalues --  -18.78915  -9.99825  -0.97734  -0.57147  -0.45051
 Alpha  occ. eigenvalues --   -0.40512  -0.37719  -0.23018
 Alpha virt. eigenvalues --   -0.09660   0.00923   0.06771   0.06826   0.09643
 Alpha virt. eigenvalues --    0.11228   0.13833   0.14141   0.17870   0.20984
 Alpha virt. eigenvalues --    0.27171   0.28194   0.30411   0.33724   0.34006

 Mulliken charges:
               1
     1  C    0.534052
     2  O   -0.263634
     3  H   -0.135209
     4  H   -0.135209
 Sum of Mulliken charges =   0.00000

 Dipole moment (field-independent basis, Debye):
    X=              0.0000    Y=             -0.0000    Z=             -2.2253  Tot=              2.2253
 Quadrupole moment (field-independent basis, Debye-Ang):
   XX=            -11.7114   YY=            -11.8307   ZZ=            -12.5142
   XY=             -0.0000   XZ=             -0.0000   YZ=              0.0000

 Normal termination of Gaussian 16 at Mon Mar 21 20:09:20 2022.
