 Gaussian 16, Revision C.01,
 Gaussian 16:  EM64L-G16RevC.01  3-Jul-2019

 ----------------------------------------------------------------------
 #P TD(Nstates=10000) pbepbe/Gen SCF(maxcycles=100) Int(Grid=ultrafine)
 ----------------------------------------------------------------------

 ---------------------
 xGDB7_00001_tier4.com
 ---------------------
 Symbolic Z-matrix:
 Charge =  0 Multiplicity = 1

                         Standard orientation:
 ---------------------------------------------------------------------
 Center     Atomic      Atomic             Coordinates (Angstroms)
 Number     Number       Type             X           Y           Z
 ---------------------------------------------------------------------
      1          6           0       -1.240791   -0.237624   -0.027525
      2          6           0        0.048946    0.559205    0.053709
      3          7           0        1.202342   -0.317606   -0.116703
      4          1           0       -2.109817    0.415828    0.064703
      5          1           0       -1.292929   -0.976209    0.776809
      6          1           0       -1.300329   -0.769884   -0.977746
      7          1           0        0.066306    1.122818    0.997967
      8          1           0        0.069957    1.296574   -0.752592
      9          1           0        1.236408   -1.003082    0.627159
     10          1           0        2.065080    0.207710   -0.076483
 ---------------------------------------------------------------------

 SCF Done:  E(RPBE-PBE) =  -134.898288356     A.U. after   13 cycles

 Excitation energies and oscillator strengths:

 Excited State   1:      Singlet-A      5.5100 eV  225.02 nm  f=0.0106  <S**2>=0.000
      13 -> 14         0.70628
 This state for optimization and/or second-order correction.
 Total Energy, E(TD-HF/TD-DFT) =  -134.695798552
 Copying the excited state density for this state as the 1-particle RhoCI density.

 Excited State   2:      Singlet-A      6.3023 eV  196.73 nm  f=0.0029  <S**2>=0.000
      13 -> 15         0.70203

 Excited State   3:      Singlet-A      6.5993 eV  187.88 nm  f=0.0265  <S**2>=0.000
      13 -> 16         0.70194

 Excited State   4:      Singlet-A      7.2167 eV  171.80 nm  f=0.0657  <S**2>=0.000
      13 -> 17         0.70530

 Excited State   5:      Singlet-A      7.6440 eV  162.20 nm  f=0.0216  <S**2>=0.000
      13 -> 18         0.70446

 Excited State   6:      Singlet-A      8.1404 eV  152.31 nm  f=0.0095  <S**2>=0.000
      13 -> 19         0.70135

 Excited State   7:      Singlet-A      8.3739 eV  148.06 nm  f=0.0050  <S**2>=0.000
      12 -> 14        -0.17276
      13 -> 20         0.68197

 Excited State   8:      Singlet-A      8.4052 eV  147.51 nm  f=0.0015  <S**2>=0.000
      12 -> 14         0.68127
      13 -> 20         0.17190

 Excited State   9:      Singlet-A      8.6098 eV  144.00 nm  f=0.0141  <S**2>=0.000
      13 -> 21         0.69521

 Excited State  10:      Singlet-A      8.9250 eV  138.92 nm  f=0.0018  <S**2>=0.000
      11 -> 14         0.70106

 Excited State  11:      Singlet-A      9.0536 eV  136.94 nm  f=0.0626  <S**2>=0.000
      10 -> 14         0.70271

 Excited State  12:      Singlet-A      9.1898 eV  134.92 nm  f=0.0176  <S**2>=0.000
      12 -> 15         0.54824
      13 -> 22        -0.44116

 Excited State  13:      Singlet-A      9.2242 eV  134.41 nm  f=0.0132  <S**2>=0.000
      12 -> 15         0.43929
      13 -> 22         0.52842

 Excited State  14:      Singlet-A      9.4196 eV  131.62 nm  f=0.0014  <S**2>=0.000
      13 -> 23         0.69831

 Excited State  15:      Singlet-A      9.5254 eV  130.16 nm  f=0.0902  <S**2>=0.000
      12 -> 16         0.68961
      13 -> 24         0.11402

 Excited State  16:      Singlet-A      9.5489 eV  129.84 nm  f=0.0058  <S**2>=0.000
      12 -> 16        -0.11924
      13 -> 24         0.68632

 Excited State  17:      Singlet-A      9.7243 eV  127.50 nm  f=0.0623  <S**2>=0.000
      11 -> 15         0.70007

 Excited State  18:      Singlet-A      9.8794 eV  125.50 nm  f=0.0097  <S**2>=0.000
      10 -> 15         0.69567

 Excited State  19:      Singlet-A      9.9765 eV  124.28 nm  f=0.0240  <S**2>=0.000
      11 -> 16         0.66971
      12 -> 17        -0.17050

 Excited State  20:      Singlet-A     10.1193 eV  122.52 nm  f=0.0124  <S**2>=0.000
      10 -> 16         0.57769
      11 -> 16         0.16214
      12 -> 17         0.21844
      13 -> 25        -0.27050

 Excited State  21:      Singlet-A     10.1289 eV  122.41 nm  f=0.0240  <S**2>=0.000
      10 -> 16         0.16811
      12 -> 17         0.31894
      13 -> 25         0.57143
      13 -> 26        -0.11531
      13 -> 27        -0.12248

 Excited State  22:      Singlet-A     10.1736 eV  121.87 nm  f=0.0524  <S**2>=0.000
      10 -> 16        -0.34265
      11 -> 16         0.12423
      12 -> 17         0.55580
      13 -> 25        -0.19390

 Excited State  23:      Singlet-A     10.4428 eV  118.73 nm  f=0.0048  <S**2>=0.000
       9 -> 14        -0.21660
      11 -> 17         0.11678
      13 -> 26         0.59143
      13 -> 27        -0.26303

 Excited State  24:      Singlet-A     10.5289 eV  117.76 nm  f=0.0133  <S**2>=0.000
       9 -> 14         0.53166
      11 -> 17        -0.19764
      12 -> 18        -0.31456
      13 -> 26         0.19834
      13 -> 27        -0.16257

 Excited State  25:      Singlet-A     10.5568 eV  117.44 nm  f=0.0312  <S**2>=0.000
       9 -> 14         0.32335
      12 -> 18         0.59029
      13 -> 27        -0.18570

 Excited State  26:      Singlet-A     10.6011 eV  116.95 nm  f=0.0451  <S**2>=0.000
       9 -> 14         0.22598
      11 -> 17         0.59421
      13 -> 27         0.26447

 Excited State  27:      Singlet-A     10.7119 eV  115.74 nm  f=0.0379  <S**2>=0.000
      10 -> 17         0.68504
      13 -> 27         0.10658

 Excited State  28:      Singlet-A     10.7716 eV  115.10 nm  f=0.0945  <S**2>=0.000
      10 -> 17        -0.11365
      11 -> 17        -0.28601
      12 -> 18         0.16744
      12 -> 19        -0.14161
      13 -> 25         0.14326
      13 -> 26         0.22982
      13 -> 27         0.49574

 Excited State  29:      Singlet-A     11.0678 eV  112.02 nm  f=0.0030  <S**2>=0.000
      10 -> 18         0.10186
      11 -> 18         0.63512
      12 -> 19        -0.27043

 Excited State  30:      Singlet-A     11.0915 eV  111.78 nm  f=0.0289  <S**2>=0.000
      11 -> 18         0.27982
      12 -> 19         0.60589
      12 -> 20         0.11964

 Excited State  31:      Singlet-A     11.2069 eV  110.63 nm  f=0.0815  <S**2>=0.000
      10 -> 18         0.64211
      12 -> 19         0.12800
      12 -> 20        -0.18462

 Excited State  32:      Singlet-A     11.2879 eV  109.84 nm  f=0.0063  <S**2>=0.000
       9 -> 15         0.60159
      12 -> 20        -0.22627
      13 -> 28         0.27724

 Excited State  33:      Singlet-A     11.3310 eV  109.42 nm  f=0.0364  <S**2>=0.000
       9 -> 16         0.11231
      10 -> 18         0.17855
      12 -> 20         0.44068
      13 -> 28         0.47983

 Excited State  34:      Singlet-A     11.3997 eV  108.76 nm  f=0.0723  <S**2>=0.000
       8 -> 14        -0.19034
       9 -> 15        -0.33263
      11 -> 19         0.13424
      12 -> 20        -0.37066
      12 -> 21        -0.17371
      13 -> 28         0.37127

 Excited State  35:      Singlet-A     11.4915 eV  107.89 nm  f=0.0119  <S**2>=0.000
       9 -> 16        -0.15470
      11 -> 19         0.19491
      12 -> 21         0.63534

 Excited State  36:      Singlet-A     11.5488 eV  107.36 nm  f=0.0420  <S**2>=0.000
       8 -> 14         0.36345
       9 -> 16         0.28316
      11 -> 19         0.51775

 Excited State  37:      Singlet-A     11.6194 eV  106.70 nm  f=0.0294  <S**2>=0.000
       8 -> 14         0.44932
       9 -> 15        -0.11628
       9 -> 16         0.11083
      10 -> 19        -0.15736
      11 -> 19        -0.36380
      12 -> 20        -0.15690
      12 -> 21         0.14612
      13 -> 28         0.11785

 Excited State  38:      Singlet-A     11.6485 eV  106.44 nm  f=0.0787  <S**2>=0.000
       8 -> 14        -0.28696
       9 -> 16         0.57667
      10 -> 19        -0.14056
      11 -> 20         0.10228
      12 -> 21         0.11931

 Excited State  39:      Singlet-A     11.7564 eV  105.46 nm  f=0.0264  <S**2>=0.000
       9 -> 16        -0.13972
      10 -> 19        -0.44683
      10 -> 20         0.15968
      11 -> 19         0.11661
      11 -> 20         0.45797

 Excited State  40:      Singlet-A     11.7831 eV  105.22 nm  f=0.0249  <S**2>=0.000
      10 -> 19         0.38728
      11 -> 20         0.44084
      13 -> 29        -0.34377

 Excited State  41:      Singlet-A     11.7889 eV  105.17 nm  f=0.0930  <S**2>=0.000
      10 -> 19         0.20797
      11 -> 20         0.27700
      13 -> 29         0.56997

 Excited State  42:      Singlet-A     11.9704 eV  103.58 nm  f=0.0768  <S**2>=0.000
      10 -> 19         0.12536
      10 -> 20         0.63220
      11 -> 21         0.13849
      12 -> 22        -0.14016

 Excited State  43:      Singlet-A     12.0576 eV  102.83 nm  f=0.0285  <S**2>=0.000
       9 -> 17         0.16023
      10 -> 21         0.34235
      11 -> 21         0.54290
      12 -> 22         0.12727

 Excited State  44:      Singlet-A     12.1253 eV  102.25 nm  f=0.0056  <S**2>=0.000
       7 -> 14        -0.12726
       9 -> 17        -0.18315
      10 -> 20         0.10405
      11 -> 21        -0.10663
      12 -> 22         0.61512
      12 -> 23         0.12601

 Excited State  45:      Singlet-A     12.1560 eV  101.99 nm  f=0.0434  <S**2>=0.000
       9 -> 17        -0.21984
      10 -> 21         0.56347
      11 -> 21        -0.23229
      12 -> 22        -0.18123

 Excited State  46:      Singlet-A     12.2254 eV  101.42 nm  f=0.0639  <S**2>=0.000
       7 -> 14         0.61088
       9 -> 17        -0.25113
      10 -> 21        -0.10777
      12 -> 23         0.14290

 Excited State  47:      Singlet-A     12.2766 eV  100.99 nm  f=0.0197  <S**2>=0.000
       7 -> 14         0.19910
       9 -> 17         0.51946
      10 -> 20         0.11811
      10 -> 21         0.10415
      11 -> 21        -0.18738
      12 -> 23         0.15958
      13 -> 30         0.12857

 Excited State  48:      Singlet-A     12.2965 eV  100.83 nm  f=0.0175  <S**2>=0.000
       8 -> 15         0.66578
      12 -> 23        -0.19042

 Excited State  49:      Singlet-A     12.3490 eV  100.40 nm  f=0.0129  <S**2>=0.000
       8 -> 15        -0.10513
      12 -> 23        -0.30847
      12 -> 24         0.16331
      13 -> 30         0.57924

 Excited State  50:      Singlet-A     12.3962 eV  100.02 nm  f=0.0417  <S**2>=0.000
       7 -> 14        -0.10650
      12 -> 22        -0.12681
      12 -> 23         0.47936
      12 -> 24        -0.26903
      13 -> 30         0.32856

 Excited State  51:      Singlet-A     12.4969 eV   99.21 nm  f=0.0218  <S**2>=0.000
       7 -> 14        -0.10877
       8 -> 15         0.10144
       8 -> 16         0.16157
       9 -> 18         0.18613
      11 -> 22        -0.17097
      12 -> 23         0.19472
      12 -> 24         0.55166
      13 -> 31         0.10330

 Excited State  52:      Singlet-A     12.5006 eV   99.18 nm  f=0.0547  <S**2>=0.000
       8 -> 16         0.17316
       9 -> 18        -0.12358
      11 -> 21        -0.10521
      13 -> 31         0.63007

 Excited State  53:      Singlet-A     12.5998 eV   98.40 nm  f=0.0098  <S**2>=0.000
       8 -> 16         0.32526
       9 -> 18         0.24898
      10 -> 22         0.16105
      11 -> 22         0.53483

 Excited State  54:      Singlet-A     12.6250 eV   98.21 nm  f=0.0677  <S**2>=0.000
       8 -> 16         0.52844
       9 -> 18        -0.25037
      10 -> 22        -0.28669
      11 -> 22        -0.13337
      13 -> 31        -0.17773

 Excited State  55:      Singlet-A     12.6730 eV   97.83 nm  f=0.0467  <S**2>=0.000
       8 -> 16         0.15649
       9 -> 18         0.47239
      10 -> 22         0.12131
      11 -> 22        -0.30996
      11 -> 23         0.21671
      12 -> 24        -0.17714

 Excited State  56:      Singlet-A     12.7664 eV   97.12 nm  f=0.0771  <S**2>=0.000
       8 -> 16         0.12273
       9 -> 18        -0.25052
      10 -> 22         0.57751
      11 -> 22        -0.11157
      12 -> 26         0.11273

 Excited State  57:      Singlet-A     12.8630 eV   96.39 nm  f=0.0048  <S**2>=0.000
       8 -> 17        -0.10495
      10 -> 23        -0.31642
      11 -> 23         0.56894
      12 -> 25        -0.11912

 Excited State  58:      Singlet-A     12.9289 eV   95.90 nm  f=0.0144  <S**2>=0.000
       7 -> 15        -0.15435
      10 -> 23         0.25444
      11 -> 23         0.20703
      11 -> 24         0.14971
      12 -> 25         0.56190

 Excited State  59:      Singlet-A     12.9587 eV   95.68 nm  f=0.0073  <S**2>=0.000
       7 -> 15         0.15449
      10 -> 23        -0.38577
      10 -> 24        -0.12121
      11 -> 24         0.49228
      12 -> 25         0.15225

 Excited State  60:      Singlet-A     13.0280 eV   95.17 nm  f=0.1345  <S**2>=0.000
       7 -> 15         0.59869
      11 -> 24        -0.24108
      12 -> 25         0.19204

 Excited State  61:      Singlet-A     13.0936 eV   94.69 nm  f=0.0194  <S**2>=0.000
       7 -> 15         0.15334
       9 -> 19         0.43409
      10 -> 23         0.29453
      10 -> 24        -0.10455
      11 -> 24         0.27729
      11 -> 25        -0.10076
      12 -> 25        -0.24233

 Excited State  62:      Singlet-A     13.1701 eV   94.14 nm  f=0.0067  <S**2>=0.000
       7 -> 15         0.11442
       9 -> 19        -0.17214
      10 -> 24         0.59184
      11 -> 24         0.17976
      11 -> 25        -0.10092

 Excited State  63:      Singlet-A     13.2122 eV   93.84 nm  f=0.0041  <S**2>=0.000
       7 -> 15        -0.14611
       7 -> 16        -0.20735
       8 -> 17         0.41226
       9 -> 19         0.35843
      10 -> 23        -0.14995
      10 -> 24         0.22097
      10 -> 25        -0.10947

 Excited State  64:      Singlet-A     13.2387 eV   93.65 nm  f=0.0063  <S**2>=0.000
       7 -> 16         0.46180
       8 -> 17         0.37972
       9 -> 19        -0.12113
      11 -> 25        -0.12681
      12 -> 26        -0.20090
      13 -> 32        -0.20829

 Excited State  65:      Singlet-A     13.3181 eV   93.09 nm  f=0.0125  <S**2>=0.000
       7 -> 16         0.27852
       8 -> 17        -0.14853
       9 -> 20        -0.11556
      11 -> 25         0.10114
      12 -> 26         0.32474
      12 -> 27         0.19425
      13 -> 32        -0.17552
      13 -> 33         0.34274
      13 -> 34        -0.23746

 Excited State  66:      Singlet-A     13.3234 eV   93.06 nm  f=0.0221  <S**2>=0.000
      12 -> 26        -0.20915
      13 -> 32         0.45005
      13 -> 33         0.47267

 Excited State  67:      Singlet-A     13.3431 eV   92.92 nm  f=0.0034  <S**2>=0.000
       7 -> 16         0.31076
       9 -> 19         0.10128
      11 -> 25         0.24859
      12 -> 26         0.19471
      13 -> 32         0.36512
      13 -> 33        -0.29359
      13 -> 34         0.19027

 Excited State  68:      Singlet-A     13.3992 eV   92.53 nm  f=0.0358  <S**2>=0.000
       8 -> 17         0.20462
       9 -> 19        -0.19051
       9 -> 20         0.37687
      10 -> 25         0.13572
      11 -> 25         0.17466
      11 -> 26         0.10006
      12 -> 26         0.31816
      13 -> 33         0.15938
      13 -> 34         0.20494

 Excited State  69:      Singlet-A     13.4492 eV   92.19 nm  f=0.0200  <S**2>=0.000
       9 -> 21         0.29392
      12 -> 26        -0.10983
      12 -> 27         0.24001
      13 -> 32        -0.18378
      13 -> 33         0.10967
      13 -> 34         0.50500

 Excited State  70:      Singlet-A     13.5015 eV   91.83 nm  f=0.0190  <S**2>=0.000
       7 -> 16        -0.11630
       7 -> 17         0.10849
       8 -> 17         0.12564
       8 -> 18        -0.36083
       9 -> 20        -0.21618
       9 -> 21        -0.17182
      11 -> 25        -0.10966
      12 -> 27         0.43922

 Excited State  71:      Singlet-A     13.5318 eV   91.62 nm  f=0.0469  <S**2>=0.000
       8 -> 18         0.12394
       9 -> 20         0.30510
       9 -> 21         0.27771
      10 -> 25         0.23221
      12 -> 27         0.33425
      13 -> 32         0.12796
      13 -> 33        -0.13791
      13 -> 34        -0.26706

 Excited State  72:      Singlet-A     13.6192 eV   91.04 nm  f=0.0988  <S**2>=0.000
       7 -> 17         0.10758
       9 -> 20        -0.28037
       9 -> 21         0.23291
      10 -> 25         0.47517
      11 -> 25         0.20277

 Excited State  73:      Singlet-A     13.6613 eV   90.76 nm  f=0.0622  <S**2>=0.000
       8 -> 18         0.21202
       9 -> 21        -0.35743
      10 -> 25         0.37280
      10 -> 26        -0.10716
      11 -> 25        -0.25882
      11 -> 26        -0.12002
      12 -> 28         0.10361
      13 -> 34         0.12468

 Excited State  74:      Singlet-A     13.7260 eV   90.33 nm  f=0.1248  <S**2>=0.000
       9 -> 21        -0.28577
      10 -> 26         0.22996
      10 -> 27         0.11259
      11 -> 25         0.35817
      11 -> 27        -0.14029
      12 -> 26        -0.27161
      12 -> 27         0.16475

 Excited State  75:      Singlet-A     13.7426 eV   90.22 nm  f=0.0288  <S**2>=0.000
       7 -> 17         0.46293
       8 -> 18         0.43336
       9 -> 20        -0.11274
      12 -> 27         0.10582

 Excited State  76:      Singlet-A     13.9262 eV   89.03 nm  f=0.0744  <S**2>=0.000
       8 -> 19         0.11911
      10 -> 27         0.15145
      11 -> 26         0.54145
      11 -> 27         0.12700
      12 -> 28         0.11704
      13 -> 35        -0.30230
      13 -> 36         0.11736

 Excited State  77:      Singlet-A     13.9529 eV   88.86 nm  f=0.0131  <S**2>=0.000
      10 -> 26        -0.20270
      11 -> 26         0.20218
      11 -> 27         0.28910
      13 -> 35         0.55612

 Excited State  78:      Singlet-A     13.9795 eV   88.69 nm  f=0.0306  <S**2>=0.000
       7 -> 17        -0.10670
      10 -> 26         0.16300
      11 -> 26        -0.19253
      11 -> 27         0.57656
      12 -> 28        -0.12528
      13 -> 35        -0.17228

 Excited State  79:      Singlet-A     14.0261 eV   88.40 nm  f=0.0334  <S**2>=0.000
      10 -> 26         0.55657
      10 -> 27         0.10422
      11 -> 25        -0.14624
      12 -> 28         0.18295
      13 -> 35         0.21036

 Excited State  80:      Singlet-A     14.1074 eV   87.89 nm  f=0.0046  <S**2>=0.000
       7 -> 17         0.21812
       7 -> 18         0.13950
       8 -> 18        -0.10583
       8 -> 19        -0.31839
       9 -> 22        -0.12187
      10 -> 27         0.48347
      12 -> 28        -0.10650

 Excited State  81:      Singlet-A     14.1515 eV   87.61 nm  f=0.0208  <S**2>=0.000
       7 -> 17        -0.25008
       7 -> 18        -0.22691
       8 -> 18         0.12383
       8 -> 19         0.30306
       8 -> 20         0.13937
       9 -> 22        -0.13278
      10 -> 27         0.37788
      12 -> 28        -0.10324
      13 -> 36        -0.13606

 Excited State  82:      Singlet-A     14.1892 eV   87.38 nm  f=0.0166  <S**2>=0.000
       8 -> 19         0.10765
       9 -> 22         0.62512
      10 -> 27         0.16828
      12 -> 28         0.13453

 Excited State  83:      Singlet-A     14.2241 eV   87.16 nm  f=0.1287  <S**2>=0.000
       7 -> 17         0.16832
       7 -> 18         0.28056
       8 -> 18        -0.10260
       8 -> 19         0.41947
      10 -> 26         0.10524
      12 -> 28        -0.27161
      13 -> 36        -0.16948

 Excited State  84:      Singlet-A     14.3297 eV   86.52 nm  f=0.0714  <S**2>=0.000
       7 -> 18         0.17610
       8 -> 19         0.16800
       8 -> 20         0.28124
       9 -> 22        -0.13537
       9 -> 23        -0.19259
      10 -> 28         0.10606
      11 -> 26        -0.13048
      11 -> 28        -0.11267
      12 -> 28         0.25850
      13 -> 36         0.36004
      13 -> 37         0.12316

 Excited State  85:      Singlet-A     14.3482 eV   86.41 nm  f=0.0219  <S**2>=0.000
       9 -> 23         0.28158
      12 -> 28        -0.35764
      13 -> 36         0.47210
      13 -> 37         0.12360

 Excited State  86:      Singlet-A     14.3681 eV   86.29 nm  f=0.0068  <S**2>=0.000
       7 -> 17        -0.10986
       7 -> 18         0.31947
       8 -> 19        -0.12094
       8 -> 20         0.45927
       9 -> 23         0.24383
      11 -> 28         0.10688
      13 -> 36        -0.17144

 Excited State  87:      Singlet-A     14.4659 eV   85.71 nm  f=0.0123  <S**2>=0.000
       7 -> 18         0.26031
       8 -> 20        -0.24680
      13 -> 37         0.44877
      13 -> 38         0.29923

 Excited State  88:      Singlet-A     14.5031 eV   85.49 nm  f=0.0455  <S**2>=0.000
       8 -> 20        -0.12137
       8 -> 21         0.13237
       9 -> 23         0.36232
       9 -> 24        -0.14509
      11 -> 28        -0.33785
      12 -> 28         0.11580
      13 -> 37        -0.18000
      13 -> 38         0.31535

 Excited State  89:      Singlet-A     14.5204 eV   85.39 nm  f=0.0175  <S**2>=0.000
       7 -> 18        -0.13129
       8 -> 20         0.12298
       9 -> 23        -0.18388
      11 -> 28         0.25070
      12 -> 28        -0.10081
      12 -> 29         0.15507
      13 -> 37        -0.18447
      13 -> 38         0.50965

 Excited State  90:      Singlet-A     14.5715 eV   85.09 nm  f=0.0231  <S**2>=0.000
       7 -> 19        -0.11008
       8 -> 21        -0.13177
       9 -> 24         0.39655
      10 -> 28        -0.10314
      11 -> 28        -0.10750
      12 -> 29         0.50360
      13 -> 38        -0.12008

 Excited State  91:      Singlet-A     14.5818 eV   85.03 nm  f=0.0408  <S**2>=0.000
       7 -> 18        -0.15807
       8 -> 20         0.18664
       8 -> 21         0.15109
       9 -> 23         0.15390
       9 -> 24         0.38444
      12 -> 29        -0.21596
      13 -> 36        -0.10161
      13 -> 37         0.29328

 Excited State  92:      Singlet-A     14.6444 eV   84.66 nm  f=0.1364  <S**2>=0.000
       6 -> 14        -0.15366
       7 -> 17        -0.10547
       7 -> 18         0.11588

 The electronic state is 1-A.
 Alpha  occ. eigenvalues --  -13.97682  -9.91564  -9.88340  -0.79732  -0.65594
 Alpha  occ. eigenvalues --   -0.53796  -0.44151  -0.41679  -0.38009  -0.32606
 Alpha  occ. eigenvalues --   -0.32129  -0.30296  -0.19659
 Alpha virt. eigenvalues --    0.00381   0.03328   0.04407   0.06603   0.08247
 Alpha virt. eigenvalues --    0.10177   0.11008   0.11678   0.14010   0.14842
 Alpha virt. eigenvalues --    0.15359   0.17068   0.18519   0.19110   0.21424

 Mulliken charges:
               1
     1  C    0.360262
     2  C    0.141237
     3  N   -0.140880
     4  H   -0.022237
     5  H   -0.029468
     6  H    0.014331
     7  H   -0.123707
     8  H   -0.164490
     9  H    0.020655
    10  H   -0.055704
 Sum of Mulliken charges =   0.00000

 Dipole moment (field-independent basis, Debye):
    X=              0.1664    Y=              0.5762    Z=              1.0652  Tot=              1.2224
 Quadrupole moment (field-independent basis, Debye-Ang):
   XX=            -19.8005   YY=            -21.0764   ZZ=            -21.7488
   XY=              0.7013   XZ=              1.5200   YZ=             -1.7014

 Normal termination of Gaussian 16 at Mon Mar 21 20:26:56 2022.
