 Gaussian 16, Revision C.01,
 Gaussian 16:  EM64L-G16RevC.01  3-Jul-2019

 ----------------------------------------------------------------------
 #P TD(Nstates=10000) pbepbe/Gen SCF(maxcycles=100) Int(Grid=ultrafine)
 ----------------------------------------------------------------------

 ---------------------
 xGDB7_00001_tier4.com
 ---------------------
 Symbolic Z-matrix:
 Charge =  0 Multiplicity = 1

                         Standard orientation:
 ---------------------------------------------------------------------
 Center     Atomic      Atomic             Coordinates (Angstroms)
 Number     Number       Type             X           Y           Z
 ---------------------------------------------------------------------
      1          6           0        0.046419    0.658432    0.000000
      2          8           0        0.046419   -0.751929    0.000000
      3          1           0       -0.438905    1.073261    0.890797
      4          1           0       -0.438905    1.073261   -0.890797
      5          1           0        1.087855    0.977571    0.000000
      6          1           0       -0.859911   -1.059251    0.000000
 ---------------------------------------------------------------------

 SCF Done:  E(RPBE-PBE) =  -115.505414792     A.U. after   12 cycles

 Excitation energies and oscillator strengths:

 Excited State   1:      Singlet-A"     6.2265 eV  199.12 nm  f=0.0008  <S**2>=0.000
       9 -> 10         0.70553
 This state for optimization and/or second-order correction.
 Total Energy, E(TD-HF/TD-DFT) =  -115.276593840
 Copying the excited state density for this state as the 1-particle RhoCI density.

 Excited State   2:      Singlet-A"     7.1434 eV  173.57 nm  f=0.0281  <S**2>=0.000
       9 -> 11         0.70468

 Excited State   3:      Singlet-A'     7.8865 eV  157.21 nm  f=0.0012  <S**2>=0.000
       8 -> 10         0.70198

 Excited State   4:      Singlet-A"     8.3098 eV  149.20 nm  f=0.0126  <S**2>=0.000
       9 -> 13         0.70573

 Excited State   5:      Singlet-A'     8.3204 eV  149.01 nm  f=0.0579  <S**2>=0.000
       9 -> 12         0.70162

 Excited State   6:      Singlet-A'     8.8285 eV  140.44 nm  f=0.0491  <S**2>=0.000
       8 -> 11         0.70296

 Excited State   7:      Singlet-A"     9.1636 eV  135.30 nm  f=0.0033  <S**2>=0.000
       9 -> 14         0.70200

 Excited State   8:      Singlet-A"     9.4178 eV  131.65 nm  f=0.0033  <S**2>=0.000
       9 -> 15         0.70007

 Excited State   9:      Singlet-A'     9.8810 eV  125.48 nm  f=0.0043  <S**2>=0.000
       9 -> 16         0.67804
       9 -> 18         0.17777

 Excited State  10:      Singlet-A"     9.9492 eV  124.62 nm  f=0.0225  <S**2>=0.000
       8 -> 12         0.70396

 Excited State  11:      Singlet-A'    10.0091 eV  123.87 nm  f=0.0788  <S**2>=0.000
       8 -> 13         0.70286

 Excited State  12:      Singlet-A"    10.3716 eV  119.54 nm  f=0.0002  <S**2>=0.000
       9 -> 17         0.70573

 Excited State  13:      Singlet-A'    10.3946 eV  119.28 nm  f=0.0393  <S**2>=0.000
       7 -> 10         0.70233

 Excited State  14:      Singlet-A'    10.5917 eV  117.06 nm  f=0.0260  <S**2>=0.000
       8 -> 14         0.16374
       8 -> 15        -0.17558
       9 -> 16        -0.14426
       9 -> 18         0.63606

 Excited State  15:      Singlet-A"    10.6259 eV  116.68 nm  f=0.0693  <S**2>=0.000
       6 -> 10         0.70344

 Excited State  16:      Singlet-A'    10.8989 eV  113.76 nm  f=0.0024  <S**2>=0.000
       8 -> 14         0.67626
       8 -> 15         0.12391
       9 -> 18        -0.11811

 Excited State  17:      Singlet-A'    11.2509 eV  110.20 nm  f=0.0303  <S**2>=0.000
       7 -> 11         0.48565
       8 -> 15         0.49645

 Excited State  18:      Singlet-A"    11.2892 eV  109.83 nm  f=0.0006  <S**2>=0.000
       8 -> 16         0.12202
       9 -> 19         0.69316

 Excited State  19:      Singlet-A"    11.4383 eV  108.39 nm  f=0.0104  <S**2>=0.000
       8 -> 16         0.68798
       9 -> 19        -0.12367

 Excited State  20:      Singlet-A'    11.4398 eV  108.38 nm  f=0.0768  <S**2>=0.000
       7 -> 11         0.49389
       8 -> 15        -0.42765
       8 -> 17        -0.13029
       9 -> 18        -0.14377

 Excited State  21:      Singlet-A"    11.5610 eV  107.24 nm  f=0.0347  <S**2>=0.000
       6 -> 11         0.70127

 Excited State  22:      Singlet-A"    12.0619 eV  102.79 nm  f=0.0000  <S**2>=0.000
       8 -> 18         0.69948

 Excited State  23:      Singlet-A'    12.1239 eV  102.26 nm  f=0.0094  <S**2>=0.000
       6 -> 12         0.13639
       8 -> 17         0.67305

 Excited State  24:      Singlet-A"    12.2674 eV  101.07 nm  f=0.0457  <S**2>=0.000
       9 -> 20         0.68773

 Excited State  25:      Singlet-A"    12.4307 eV   99.74 nm  f=0.0014  <S**2>=0.000
       7 -> 12         0.70224

 Excited State  26:      Singlet-A'    12.5990 eV   98.41 nm  f=0.0790  <S**2>=0.000
       6 -> 12        -0.34317
       7 -> 13         0.59908

 Excited State  27:      Singlet-A'    12.6477 eV   98.03 nm  f=0.0477  <S**2>=0.000
       5 -> 10         0.61320
       6 -> 12        -0.26989
       7 -> 13        -0.16107
       8 -> 19         0.11829

 Excited State  28:      Singlet-A"    12.7229 eV   97.45 nm  f=0.0012  <S**2>=0.000
       6 -> 13         0.70300

 Excited State  29:      Singlet-A'    13.1336 eV   94.40 nm  f=0.0255  <S**2>=0.000
       5 -> 11        -0.19687
       6 -> 12         0.27575
       7 -> 13         0.19586
       7 -> 14         0.17562
       7 -> 15         0.19671
       8 -> 19         0.49843

 Excited State  30:      Singlet-A"    13.2841 eV   93.33 nm  f=0.0011  <S**2>=0.000
       9 -> 21         0.68982
       9 -> 23        -0.12090

 Excited State  31:      Singlet-A'    13.2842 eV   93.33 nm  f=0.0394  <S**2>=0.000
       5 -> 10        -0.21456
       6 -> 12        -0.30824
       6 -> 16         0.10466
       7 -> 13        -0.16730
       7 -> 14        -0.34628
       8 -> 19         0.36667
       9 -> 24         0.18273

 Excited State  32:      Singlet-A'    13.4556 eV   92.14 nm  f=0.0220  <S**2>=0.000
       5 -> 10         0.11110
       6 -> 12         0.16383
       7 -> 14        -0.35341
       7 -> 15         0.14482
       9 -> 22         0.52317
       9 -> 24        -0.11202

 Excited State  33:      Singlet-A'    13.4872 eV   91.93 nm  f=0.0367  <S**2>=0.000
       5 -> 11         0.60603
       7 -> 14         0.10451
       7 -> 15         0.32537

 Excited State  34:      Singlet-A"    13.5791 eV   91.31 nm  f=0.0007  <S**2>=0.000
       6 -> 14         0.58907
       9 -> 23         0.37708

 Excited State  35:      Singlet-A'    13.6414 eV   90.89 nm  f=0.0490  <S**2>=0.000
       5 -> 10        -0.12839
       5 -> 11        -0.15010
       5 -> 13         0.12965
       6 -> 12        -0.20433
       6 -> 16         0.12318
       7 -> 14         0.41101
       9 -> 22         0.39251

 Excited State  36:      Singlet-A"    13.6527 eV   90.81 nm  f=0.0163  <S**2>=0.000
       6 -> 14        -0.31573
       6 -> 15         0.29368
       9 -> 21         0.10042
       9 -> 23         0.54827

 Excited State  37:      Singlet-A'    13.7057 eV   90.46 nm  f=0.0840  <S**2>=0.000
       5 -> 11        -0.21288
       6 -> 16        -0.14161
       6 -> 18        -0.10495
       7 -> 13        -0.11890
       7 -> 15         0.52206
       8 -> 19        -0.14531
       8 -> 20         0.12065
       9 -> 22        -0.19610
       9 -> 24        -0.18826

 Excited State  38:      Singlet-A"    13.8199 eV   89.71 nm  f=0.0010  <S**2>=0.000
       6 -> 14         0.12622
       6 -> 15         0.35097
       7 -> 16         0.58305
       9 -> 23        -0.12592

 Excited State  39:      Singlet-A'    13.8858 eV   89.29 nm  f=0.0032  <S**2>=0.000
       6 -> 16        -0.10675
       8 -> 20         0.64694
       8 -> 21         0.10967
       9 -> 22         0.10208
       9 -> 24         0.17937

 Excited State  40:      Singlet-A'    14.0353 eV   88.34 nm  f=0.3732  <S**2>=0.000
       5 -> 11        -0.11294
       7 -> 15         0.14875
       8 -> 19        -0.16759
       8 -> 20        -0.18380
       9 -> 24         0.60363

 Excited State  41:      Singlet-A"    14.1683 eV   87.51 nm  f=0.1702  <S**2>=0.000
       6 -> 14         0.15121
       6 -> 15         0.47915
       6 -> 17        -0.15625
       7 -> 16        -0.37534
       7 -> 18         0.16600
       9 -> 23        -0.13131

 Excited State  42:      Singlet-A'    14.3663 eV   86.30 nm  f=0.1279  <S**2>=0.000
       6 -> 16         0.54845
       7 -> 17        -0.38762

 Excited State  43:      Singlet-A"    14.5526 eV   85.20 nm  f=0.0023  <S**2>=0.000
       5 -> 12        -0.17451
       6 -> 17         0.13797
       7 -> 18         0.64351
       9 -> 25         0.16048

 Excited State  44:      Singlet-A"    14.6186 eV   84.81 nm  f=0.0505  <S**2>=0.000
       6 -> 17        -0.12919
       7 -> 18        -0.14582
       9 -> 25         0.66989

 Excited State  45:      Singlet-A"    14.6619 eV   84.56 nm  f=0.0399  <S**2>=0.000
       5 -> 12         0.65958
       6 -> 17         0.17220
       9 -> 25         0.12949

 Excited State  46:      Singlet-A'    14.6941 eV   84.38 nm  f=0.1279  <S**2>=0.000
       5 -> 13        -0.34093
       6 -> 16         0.30131
       7 -> 17         0.47182
       7 -> 19        -0.10527

 Excited State  47:      Singlet-A'    14.7763 eV   83.91 nm  f=0.0489  <S**2>=0.000
       5 -> 13         0.43910
       6 -> 18         0.38614
       7 -> 17         0.26807
       8 -> 21        -0.21247

 Excited State  48:      Singlet-A"    14.8511 eV   83.48 nm  f=0.0951  <S**2>=0.000
       5 -> 12        -0.11537
       6 -> 15         0.11638
       6 -> 17         0.61442
       7 -> 18        -0.13332
       8 -> 22        -0.22519

 Excited State  49:      Singlet-A'    14.9959 eV   82.68 nm  f=0.1079  <S**2>=0.000
       5 -> 13        -0.31529
       6 -> 18         0.54079
       7 -> 17        -0.17830
       7 -> 19        -0.13374

 Excited State  50:      Singlet-A'    15.0206 eV   82.54 nm  f=0.0875  <S**2>=0.000
       5 -> 13         0.17546
       5 -> 14        -0.10043
       5 -> 15        -0.10530
       7 -> 19        -0.15853
       8 -> 21         0.60606
       9 -> 28        -0.10324

 Excited State  51:      Singlet-A"    15.2633 eV   81.23 nm  f=0.1691  <S**2>=0.000
       6 -> 17         0.14441
       8 -> 22         0.64339
       8 -> 24        -0.12868
       9 -> 29         0.10697

 Excited State  52:      Singlet-A'    15.3185 eV   80.94 nm  f=0.0076  <S**2>=0.000
       7 -> 19        -0.10953
       8 -> 23         0.55601
       9 -> 26        -0.39974

 Excited State  53:      Singlet-A'    15.3681 eV   80.68 nm  f=0.0101  <S**2>=0.000
       5 -> 15         0.13394
       7 -> 19        -0.11060
       8 -> 23         0.35823
       9 -> 26         0.56903

 Excited State  54:      Singlet-A"    15.3875 eV   80.57 nm  f=0.0122  <S**2>=0.000
       8 -> 24         0.14921
       9 -> 27         0.68796

 Excited State  55:      Singlet-A"    15.5365 eV   79.80 nm  f=0.0009  <S**2>=0.000
       6 -> 19        -0.10715
       8 -> 24         0.66911
       9 -> 27        -0.14679

 Excited State  56:      Singlet-A'    15.6110 eV   79.42 nm  f=0.0173  <S**2>=0.000
       5 -> 14         0.54497
       5 -> 15        -0.26105
       7 -> 19         0.28400
       7 -> 20         0.12210

 Excited State  57:      Singlet-A"    15.7055 eV   78.94 nm  f=0.0017  <S**2>=0.000
       6 -> 19         0.68721
       9 -> 29         0.11574

 Excited State  58:      Singlet-A'    15.7259 eV   78.84 nm  f=0.0531  <S**2>=0.000
       5 -> 13         0.10297
       5 -> 14         0.28874
       6 -> 18        -0.11414
       7 -> 19        -0.39173
       9 -> 28         0.44687

 Excited State  59:      Singlet-A'    15.8956 eV   78.00 nm  f=0.0342  <S**2>=0.000
       5 -> 14        -0.24323
       5 -> 15        -0.35852
       7 -> 19         0.23193
       8 -> 23         0.17364
       9 -> 28         0.42667

 Excited State  60:      Singlet-A"    15.9769 eV   77.60 nm  f=0.0173  <S**2>=0.000
       5 -> 16        -0.37978
       9 -> 29         0.58069

 Excited State  61:      Singlet-A'    16.0417 eV   77.29 nm  f=0.1469  <S**2>=0.000
       4 -> 10        -0.11451
       5 -> 15         0.45303
       7 -> 19         0.27312
       7 -> 20         0.25206
       8 -> 21         0.10665
       8 -> 25        -0.19170
       9 -> 28         0.21705

 Excited State  62:      Singlet-A"    16.1756 eV   76.65 nm  f=0.1692  <S**2>=0.000
       5 -> 16         0.56861
       6 -> 20         0.14940
       9 -> 29         0.33329

 Excited State  63:      Singlet-A'    16.3356 eV   75.90 nm  f=0.0429  <S**2>=0.000
       5 -> 15         0.10250
       7 -> 20         0.10264
       8 -> 25         0.67056

 Excited State  64:      Singlet-A"    16.4506 eV   75.37 nm  f=0.0006  <S**2>=0.000
       9 -> 30         0.69335

 Excited State  65:      Singlet-A'    16.5266 eV   75.02 nm  f=0.1248  <S**2>=0.000
       4 -> 10         0.40927
       7 -> 20         0.51916
       7 -> 21         0.10383

 Excited State  66:      Singlet-A"    16.6160 eV   74.62 nm  f=0.0044  <S**2>=0.000
       6 -> 20         0.67025

 Excited State  67:      Singlet-A"    16.7605 eV   73.97 nm  f=0.0016  <S**2>=0.000
       5 -> 18         0.69462

 Excited State  68:      Singlet-A'    16.7635 eV   73.96 nm  f=0.0894  <S**2>=0.000
       4 -> 10         0.20849
       5 -> 17         0.66089

 Excited State  69:      Singlet-A'    16.9624 eV   73.09 nm  f=0.0110  <S**2>=0.000
       4 -> 10         0.48554
       5 -> 17        -0.18677
       5 -> 19         0.19912
       7 -> 20        -0.27774
       7 -> 21        -0.18308
       9 -> 32         0.10037

 Excited State  70:      Singlet-A"    17.0104 eV   72.89 nm  f=0.0073  <S**2>=0.000
       8 -> 26         0.69467
       8 -> 28        -0.10462

 Excited State  71:      Singlet-A'    17.1590 eV   72.26 nm  f=0.0159  <S**2>=0.000
       8 -> 27         0.67463

 Excited State  72:      Singlet-A"    17.2940 eV   71.69 nm  f=0.0052  <S**2>=0.000
       8 -> 28        -0.13024
       9 -> 31         0.69113

 Excited State  73:      Singlet-A'    17.4367 eV   71.11 nm  f=0.0042  <S**2>=0.000
       5 -> 19         0.15118
       7 -> 21         0.61529
       7 -> 23        -0.20306
       9 -> 32         0.12640

 Excited State  74:      Singlet-A"    17.4490 eV   71.06 nm  f=0.0361  <S**2>=0.000
       6 -> 21         0.18611
       7 -> 22        -0.13627
       8 -> 28         0.62335
       9 -> 31         0.12639

 Excited State  75:      Singlet-A'    17.6067 eV   70.42 nm  f=0.0032  <S**2>=0.000
       4 -> 11         0.32266
       5 -> 19         0.11298
       8 -> 29         0.59516
       9 -> 32        -0.10971

 Excited State  76:      Singlet-A"    17.6600 eV   70.21 nm  f=0.0037  <S**2>=0.000
       6 -> 21         0.53705
       6 -> 23        -0.16567
       7 -> 22         0.41906

 Excited State  77:      Singlet-A"    17.6709 eV   70.16 nm  f=0.0195  <S**2>=0.000
       6 -> 21        -0.35111
       6 -> 23         0.17341
       7 -> 22         0.54938
       8 -> 28         0.18402

 Excited State  78:      Singlet-A'    17.8124 eV   69.61 nm  f=0.0156  <S**2>=0.000
       4 -> 11         0.53635
       5 -> 19        -0.14657
       5 -> 20        -0.14826
       7 -> 23         0.11202
       8 -> 29        -0.22422
       8 -> 30        -0.19008
       9 -> 32         0.16280

 Excited State  79:      Singlet-A'    17.8753 eV   69.36 nm  f=0.0818  <S**2>=0.000
       4 -> 11        -0.14852
       5 -> 19        -0.20592
       6 -> 22         0.26667
       6 -> 24        -0.13391
       7 -> 23         0.47038
       8 -> 29         0.13553
       9 -> 32         0.26617

 Excited State  80:      Singlet-A'    17.9012 eV   69.26 nm  f=0.0965  <S**2>=0.000
       5 -> 19         0.48497
       6 -> 24         0.15832
       7 -> 23         0.37815
       8 -> 29        -0.15703
       8 -> 30        -0.11165
       9 -> 32        -0.15452

 Excited State  81:      Singlet-A'    17.9678 eV   69.00 nm  f=0.0109  <S**2>=0.000
       6 -> 22         0.61432
       7 -> 23        -0.16905
       8 -> 30        -0.19369
       9 -> 32        -0.15562

 Excited State  82:      Singlet-A"    18.0027 eV   68.87 nm  f=0.0252  <S**2>=0.000
       7 -> 24         0.69468
       9 -> 33        -0.10091

 Excited State  83:      Singlet-A"    18.1362 eV   68.36 nm  f=0.0240  <S**2>=0.000
       6 -> 21         0.13112
       6 -> 23         0.48400
       9 -> 33        -0.47481

 Excited State  84:      Singlet-A'    18.1556 eV   68.29 nm  f=0.0010  <S**2>=0.000
       5 -> 19         0.17153
       5 -> 20         0.17368
       6 -> 24         0.19706
       7 -> 21        -0.14114
       7 -> 23        -0.11937
       9 -> 32         0.52424
       9 -> 35         0.17867

 Excited State  85:      Singlet-A"    18.2049 eV   68.10 nm  f=0.0492  <S**2>=0.000
       6 -> 21         0.14740
       6 -> 23         0.42142
       9 -> 33         0.51005

 Excited State  86:      Singlet-A'    18.2411 eV   67.97 nm  f=0.0102  <S**2>=0.000
       4 -> 11         0.10125
       5 -> 19         0.11863
       5 -> 20        -0.21482
       6 -> 22         0.15245
       8 -> 29        -0.12055
       8 -> 30         0.59820

 Excited State  87:      Singlet-A'    18.3963 eV   67.40 nm  f=0.0378  <S**2>=0.000
       5 -> 19        -0.17327
       5 -> 20        -0.11609
       6 -> 24         0.62130
       9 -> 35        -0.12815

 Excited State  88:      Singlet-A"    18.6404 eV   66.51 nm  f=0.0023  <S**2>=0.000
       9 -> 34         0.70112

 Excited State  89:      Singlet-A'    18.7127 eV   66.26 nm  f=0.0639  <S**2>=0.000
       5 -> 20         0.40489
       7 -> 25         0.50680
       8 -> 31         0.13792
       9 -> 35        -0.13381

 Excited State  90:      Singlet-A'    18.8716 eV   65.70 nm  f=0.0174  <S**2>=0.000
       4 -> 13         0.45657
       5 -> 20         0.26690
       7 -> 25        -0.31271
       7 -> 27        -0.13967
       8 -> 31         0.15383
       9 -> 35        -0.11806

 Excited State  91:      Singlet-A"    18.9095 eV   65.57 nm  f=0.0013  <S**2>=0.000
       4 -> 12         0.65660
       6 -> 25        -0.18870

 Excited State  92:      Singlet-A'    18.9389 eV   65.47 nm  f=0.0320  <S**2>=0.000
       4 -> 13        -0.41980
       7 -> 25        -0.25422
       8 -> 31         0.46997

 Excited State  93:      Singlet-A"    19.0403 eV   65.12 nm  f=0.0668  <S**2>=0.000
       4 -> 12         0.17598
       6 -> 25         0.67240

 Excited State  94:      Singlet-A'    19.0632 eV   65.04 nm  f=0.0534  <S**2>=0.000
       4 -> 13         0.26884
       4 -> 14        -0.11116
       5 -> 20        -0.26843
       5 -> 21        -0.13922
       6 -> 28         0.11410
       7 -> 25         0.21911
       8 -> 31         0.45834

 Excited State  95:      Singlet-A'    19.4155 eV   63.86 nm  f=0.0437  <S**2>=0.000
       5 -> 21         0.38279
       5 -> 23         0.14002
       7 -> 29         0.16283
       9 -> 35         0.49541

 Excited State  96:      Singlet-A"    19.4584 eV   63.72 nm  f=0.0021  <S**2>=0.000
       7 -> 26        -0.39691
       9 -> 36         0.57736

 Excited State  97:      Singlet-A"    19.5140 eV   63.54 nm  f=0.0045  <S**2>=0.000
       7 -> 26         0.54422
       7 -> 28        -0.10409
       8 -> 32        -0.17929
       9 -> 36         0.39185

 Excited State  98:      Singlet-A"    19.5673 eV   63.36 nm  f=0.0013  <S**2>=0.000
       7 -> 26         0.16632
       8 -> 32         0.67368

 Excited State  99:      Singlet-A'    19.6748 eV   63.02 nm  f=0.0113  <S**2>=0.000
       4 -> 14         0.41017
       4 -> 15        -0.16116
       5 -> 21        -0.39138
       5 -> 23         0.20347
       7 -> 29         0.14733
       8 -> 33         0.12394
       9 -> 35         0.18153

 Excited State 100:      Singlet-A'    19.7195 eV   62.87 nm  f=0.0287  <S**2>=0.000
       4 -> 14        -0.18228
       6 -> 26         0.62862
       6 -> 28        -0.12630
       7 -> 27        -0.10603

 Excited State 101:      Singlet-A"    19.7796 eV   62.68 nm  f=0.0009  <S**2>=0.000
       6 -> 27         0.52522
       7 -> 28        -0.45277

 Excited State 102:      Singlet-A'    19.7830 eV   62.67 nm  f=0.1415  <S**2>=0.000
       4 -> 14         0.42959
       5 -> 21         0.32928
       6 -> 26         0.25008
       7 -> 27         0.26485
       7 -> 29        -0.15057

 Excited State 103:      Singlet-A'    19.8204 eV   62.55 nm  f=0.0135  <S**2>=0.000
       4 -> 14        -0.13725
       7 -> 27         0.20775
       7 -> 29        -0.10016
       8 -> 33         0.64268

 Excited State 104:      Singlet-A"    19.8528 eV   62.45 nm  f=0.0221  <S**2>=0.000
       5 -> 22         0.51706
       6 -> 27         0.34633
       7 -> 28         0.30479

 Excited State 105:      Singlet-A"    19.9038 eV   62.29 nm  f=0.0008  <S**2>=0.000
       5 -> 22         0.45061
       5 -> 24        -0.15419
       6 -> 27        -0.24723
       6 -> 29         0.15449
       7 -> 28        -0.41164

 Excited State 106:      Singlet-A'    19.9282 eV   62.22 nm  f=0.0079  <S**2>=0.000
       4 -> 15         0.53722
       5 -> 23         0.40055
       6 -> 28        -0.14346
       8 -> 34         0.10444

 Excited State 107:      Singlet-A'    20.0301 eV   61.90 nm  f=0.0671  <S**2>=0.000
       4 -> 14        -0.20097
       4 -> 15        -0.15061
       5 -> 21        -0.13496
       5 -> 23         0.17402
       5 -> 25        -0.11540
       6 -> 28        -0.10671
       7 -> 27         0.40335
       7 -> 29        -0.21816
       8 -> 33        -0.24263
       8 -> 36        -0.15389
       9 -> 35         0.10758

 Excited State 108:      Singlet-A"    20.2285 eV   61.29 nm  f=0.0126  <S**2>=0.000
       5 -> 24         0.62859
       6 -> 29         0.29936

 Excited State 109:      Singlet-A'    20.2514 eV   61.22 nm  f=0.1045  <S**2>=0.000
       4 -> 15         0.24629
       5 -> 23        -0.26169
       7 -> 27         0.31612
       7 -> 29         0.42008
       8 -> 34         0.15966

 Excited State 110:      Singlet-A'    20.3104 eV   61.04 nm  f=0.0252  <S**2>=0.000
       4 -> 15        -0.18786
       5 -> 23         0.20495
       6 -> 28         0.21026
       8 -> 34         0.58519

 Excited State 111:      Singlet-A"    20.3450 eV   60.94 nm  f=0.0000  <S**2>=0.000
       4 -> 16         0.66766

 The electronic state is 1-A'.
 Alpha  occ. eigenvalues --  -18.76798  -9.93855  -0.93044  -0.61580  -0.46459
 Alpha  occ. eigenvalues --   -0.39338  -0.38409  -0.29313  -0.23230
 Alpha virt. eigenvalues --   -0.00610   0.02747   0.07217   0.07227   0.10482
 Alpha virt. eigenvalues --    0.11170   0.12419   0.14954   0.15019   0.18176
 Alpha virt. eigenvalues --    0.21278   0.25196   0.26537   0.26746   0.27810

 Mulliken charges:
               1
     1  C    0.614529
     2  O   -0.407790
     3  H   -0.087927
     4  H   -0.087927
     5  H   -0.170848
     6  H    0.139962
 Sum of Mulliken charges =  -0.00000

 Dipole moment (field-independent basis, Debye):
    X=             -1.3382    Y=              0.8944    Z=             -0.0000  Tot=              1.6096
 Quadrupole moment (field-independent basis, Debye-Ang):
   XX=            -12.0612   YY=            -13.6450   ZZ=            -14.0966
   XY=              2.0898   XZ=              0.0000   YZ=              0.0000

 Normal termination of Gaussian 16 at Mon Mar 21 20:16:59 2022.
