 Gaussian 16, Revision C.01,
 Gaussian 16:  EM64L-G16RevC.01  3-Jul-2019

 ----------------------------------------------------------------------
 #P TD(Nstates=10000) pbepbe/Gen SCF(maxcycles=100) Int(Grid=ultrafine)
 ----------------------------------------------------------------------

 ---------------------
 xGDB7_00001_tier4.com
 ---------------------
 Symbolic Z-matrix:
 Charge =  0 Multiplicity = 1

                         Standard orientation:
 ---------------------------------------------------------------------
 Center     Atomic      Atomic             Coordinates (Angstroms)
 Number     Number       Type             X           Y           Z
 ---------------------------------------------------------------------
      1          6           0        0.000284   -0.018657   -1.236532
      2          6           0       -0.000055    0.003295    0.218717
      3          6           0       -0.000323    0.021367    1.415619
      4          1           0        0.273656    0.958689   -1.636635
      5          1           0       -0.987794   -0.279414   -1.618263
      6          1           0        0.715256   -0.752703   -1.610700
      7          1           0       -0.000556    0.037402    2.478776
 ---------------------------------------------------------------------

 SCF Done:  E(RPBE-PBE) =  -116.408395281     A.U. after   13 cycles

 Excitation energies and oscillator strengths:

 Excited State   1:      Singlet-A      6.7168 eV  184.59 nm  f=0.0041  <S**2>=0.000
      11 -> 12         0.70658
 This state for optimization and/or second-order correction.
 Total Energy, E(TD-HF/TD-DFT) =  -116.161558184
 Copying the excited state density for this state as the 1-particle RhoCI density.

 Excited State   2:      Singlet-A      6.7168 eV  184.59 nm  f=0.0041  <S**2>=0.000
      10 -> 12         0.70658

 Excited State   3:      Singlet-A      6.8050 eV  182.20 nm  f=0.0000  <S**2>=0.000
      10 -> 13        -0.31627
      10 -> 14         0.38725
      11 -> 13         0.38729
      11 -> 14         0.31625

 Excited State   4:      Singlet-A      6.9939 eV  177.27 nm  f=0.0011  <S**2>=0.000
      10 -> 13        -0.29212
      10 -> 14         0.40527
      11 -> 13        -0.40525
      11 -> 14        -0.29210

 Excited State   5:      Singlet-A      6.9939 eV  177.27 nm  f=0.0011  <S**2>=0.000
      10 -> 13         0.40525
      10 -> 14         0.29212
      11 -> 13        -0.29209
      11 -> 14         0.40528

 Excited State   6:      Singlet-A      7.7763 eV  159.44 nm  f=0.0351  <S**2>=0.000
      11 -> 15         0.70607

 Excited State   7:      Singlet-A      7.7763 eV  159.44 nm  f=0.0351  <S**2>=0.000
      10 -> 15         0.70607

 Excited State   8:      Singlet-A      8.4341 eV  147.00 nm  f=0.0376  <S**2>=0.000
      11 -> 16         0.70431

 Excited State   9:      Singlet-A      8.4341 eV  147.00 nm  f=0.0376  <S**2>=0.000
      10 -> 16         0.70431

 Excited State  10:      Singlet-A      8.7747 eV  141.30 nm  f=0.4260  <S**2>=0.000
      10 -> 13        -0.25687
      10 -> 14        -0.20986
      10 -> 17         0.32441
      10 -> 18         0.16843
      11 -> 13        -0.20985
      11 -> 14         0.25687
      11 -> 17        -0.16844
      11 -> 18         0.32440

 Excited State  11:      Singlet-A      9.1850 eV  134.98 nm  f=0.0000  <S**2>=0.000
      10 -> 17         0.23040
      10 -> 18        -0.44343
      11 -> 17         0.44398
      11 -> 18         0.23035

 Excited State  12:      Singlet-A      9.2045 eV  134.70 nm  f=0.0027  <S**2>=0.000
      10 -> 17         0.31040
      10 -> 18         0.39099
      11 -> 17         0.39058
      11 -> 18        -0.31061

 Excited State  13:      Singlet-A      9.2045 eV  134.70 nm  f=0.0027  <S**2>=0.000
      10 -> 17         0.39085
      10 -> 18        -0.31064
      11 -> 17        -0.31037
      11 -> 18        -0.39071

 Excited State  14:      Singlet-A      9.9696 eV  124.36 nm  f=0.0000  <S**2>=0.000
      10 -> 19         0.14549
      10 -> 20        -0.47820
      11 -> 19         0.47822
      11 -> 20         0.14549

 Excited State  15:      Singlet-A     10.0210 eV  123.72 nm  f=0.0424  <S**2>=0.000
      10 -> 17         0.10865
      10 -> 19         0.44216
      10 -> 20         0.13447
      11 -> 18         0.10866
      11 -> 19        -0.13453
      11 -> 20         0.44199

 Excited State  16:      Singlet-A     10.0481 eV  123.39 nm  f=0.0001  <S**2>=0.000
      10 -> 19        -0.37321
      10 -> 20        -0.30696
      10 -> 21        -0.16644
      11 -> 19        -0.30698
      11 -> 20         0.37333

 Excited State  17:      Singlet-A     10.0481 eV  123.39 nm  f=0.0001  <S**2>=0.000
      10 -> 19        -0.30689
      10 -> 20         0.37328
      11 -> 19         0.37323
      11 -> 20         0.30704
      11 -> 21        -0.16651

 Excited State  18:      Singlet-A     10.1288 eV  122.41 nm  f=0.7134  <S**2>=0.000
       8 -> 14        -0.14054
       9 -> 13        -0.14056
      10 -> 13         0.22206
      10 -> 14         0.18127
      10 -> 17         0.26168
      10 -> 18         0.13587
      10 -> 19        -0.17130
      11 -> 13         0.18127
      11 -> 14        -0.22206
      11 -> 17        -0.13587
      11 -> 18         0.26169
      11 -> 20        -0.17124

 Excited State  19:      Singlet-A     10.1958 eV  121.60 nm  f=0.0246  <S**2>=0.000
      11 -> 21         0.67878

 Excited State  20:      Singlet-A     10.1958 eV  121.60 nm  f=0.0247  <S**2>=0.000
      10 -> 21         0.67880

 Excited State  21:      Singlet-A     10.8868 eV  113.88 nm  f=0.0000  <S**2>=0.000
       8 -> 13        -0.41522
       8 -> 14         0.27813
       9 -> 13         0.27851
       9 -> 14         0.41552

 Excited State  22:      Singlet-A     10.9026 eV  113.72 nm  f=0.0964  <S**2>=0.000
       9 -> 12         0.69426

 Excited State  23:      Singlet-A     10.9027 eV  113.72 nm  f=0.0964  <S**2>=0.000
       8 -> 12         0.69424

 Excited State  24:      Singlet-A     11.0588 eV  112.11 nm  f=0.0251  <S**2>=0.000
       7 -> 13        -0.12833
       8 -> 13        -0.24558
       8 -> 14        -0.41456
       9 -> 13         0.41460
       9 -> 14        -0.24566

 Excited State  25:      Singlet-A     11.0589 eV  112.11 nm  f=0.0251  <S**2>=0.000
       7 -> 14         0.12834
       8 -> 13         0.41465
       8 -> 14        -0.24569
       9 -> 13         0.24557
       9 -> 14         0.41447

 Excited State  26:      Singlet-A     11.3236 eV  109.49 nm  f=0.0023  <S**2>=0.000
      10 -> 22         0.12588
      10 -> 23        -0.48249
      11 -> 22         0.48277
      11 -> 23         0.12577

 Excited State  27:      Singlet-A     11.3236 eV  109.49 nm  f=0.0023  <S**2>=0.000
      10 -> 22         0.48261
      10 -> 23         0.12577
      11 -> 22        -0.12588
      11 -> 23         0.48265

 Excited State  28:      Singlet-A     11.3485 eV  109.25 nm  f=0.0000  <S**2>=0.000
      10 -> 22         0.17158
      10 -> 23         0.46973
      11 -> 22         0.46941
      11 -> 23        -0.17155

 Excited State  29:      Singlet-A     11.3877 eV  108.88 nm  f=0.0354  <S**2>=0.000
       7 -> 12         0.69874

 Excited State  30:      Singlet-A     11.5097 eV  107.72 nm  f=0.0007  <S**2>=0.000
       7 -> 13        -0.20891
       7 -> 14        -0.43681
      10 -> 24         0.45679
      11 -> 24        -0.21500

 Excited State  31:      Singlet-A     11.5097 eV  107.72 nm  f=0.0007  <S**2>=0.000
       7 -> 13        -0.43680
       7 -> 14         0.20889
      10 -> 24         0.21499
      11 -> 24         0.45681

 Excited State  32:      Singlet-A     11.7417 eV  105.59 nm  f=0.0243  <S**2>=0.000
       8 -> 13         0.23464
       8 -> 14         0.35020
       9 -> 13         0.35014
       9 -> 14        -0.23461
      10 -> 22         0.10166
      10 -> 28         0.10512
      11 -> 23        -0.10166
      11 -> 27         0.10513

 Excited State  33:      Singlet-A     11.8571 eV  104.57 nm  f=0.0092  <S**2>=0.000
       9 -> 15         0.70393

 Excited State  34:      Singlet-A     11.8572 eV  104.56 nm  f=0.0092  <S**2>=0.000
       8 -> 15         0.70392

 Excited State  35:      Singlet-A     11.8958 eV  104.23 nm  f=0.0097  <S**2>=0.000
       7 -> 13         0.38191
       7 -> 14        -0.29897
      10 -> 24         0.10663
      11 -> 24         0.47278

 Excited State  36:      Singlet-A     11.8958 eV  104.23 nm  f=0.0097  <S**2>=0.000
       7 -> 13         0.29895
       7 -> 14         0.38190
      10 -> 24         0.47280
      11 -> 24        -0.10663

 Excited State  37:      Singlet-A     12.2114 eV  101.53 nm  f=0.1604  <S**2>=0.000
       7 -> 15         0.40084
      10 -> 22        -0.34501
      10 -> 23         0.12605
      11 -> 22         0.12605
      11 -> 23         0.34501

 Excited State  38:      Singlet-A     12.4726 eV   99.41 nm  f=0.0010  <S**2>=0.000
       9 -> 16         0.70398

 Excited State  39:      Singlet-A     12.4727 eV   99.40 nm  f=0.0010  <S**2>=0.000
       8 -> 16         0.70398

 Excited State  40:      Singlet-A     12.5307 eV   98.94 nm  f=0.0087  <S**2>=0.000
       6 -> 12         0.10349
       6 -> 15         0.10417
       7 -> 15         0.56612
      10 -> 22         0.21613
      11 -> 23        -0.21613

 Excited State  41:      Singlet-A     13.0504 eV   95.00 nm  f=0.0119  <S**2>=0.000
       6 -> 12         0.64150
       7 -> 16         0.24492

 Excited State  42:      Singlet-A     13.0763 eV   94.82 nm  f=0.0000  <S**2>=0.000
      10 -> 25         0.18898
      10 -> 26         0.45650
      11 -> 25         0.45654
      11 -> 26        -0.18896

 Excited State  43:      Singlet-A     13.0905 eV   94.71 nm  f=0.1916  <S**2>=0.000
       6 -> 12        -0.24899
       7 -> 16         0.63403

 Excited State  44:      Singlet-A     13.1422 eV   94.34 nm  f=0.0001  <S**2>=0.000
       7 -> 16         0.15213
      10 -> 25         0.39708
      10 -> 26        -0.16432
      10 -> 27         0.11470
      10 -> 28        -0.17994
      11 -> 25        -0.16441
      11 -> 26        -0.39707
      11 -> 27        -0.17994
      11 -> 28        -0.11470

 Excited State  45:      Singlet-A     13.2683 eV   93.44 nm  f=0.0254  <S**2>=0.000
       6 -> 13         0.43049
      10 -> 25        -0.38199
      11 -> 26        -0.38203

 Excited State  46:      Singlet-A     13.2683 eV   93.44 nm  f=0.0254  <S**2>=0.000
       6 -> 14         0.43048
      10 -> 26         0.38203
      11 -> 25        -0.38199

 Excited State  47:      Singlet-A     13.2734 eV   93.41 nm  f=0.0000  <S**2>=0.000
       8 -> 18        -0.49155
       9 -> 17         0.49168

 Excited State  48:      Singlet-A     13.3789 eV   92.67 nm  f=0.0493  <S**2>=0.000
       6 -> 13         0.14315
       8 -> 17        -0.43574
       8 -> 18        -0.19126
       9 -> 17        -0.19114
       9 -> 18         0.43579

 Excited State  49:      Singlet-A     13.3789 eV   92.67 nm  f=0.0493  <S**2>=0.000
       6 -> 14        -0.14315
       8 -> 17        -0.19125
       8 -> 18         0.43603
       9 -> 17         0.43551
       9 -> 18         0.19115

 Excited State  50:      Singlet-A     13.5420 eV   91.56 nm  f=0.0011  <S**2>=0.000
       6 -> 13        -0.15511
       6 -> 14         0.19346
      10 -> 26        -0.10533
      10 -> 27         0.42015
      10 -> 28         0.14048
      11 -> 25         0.10537
      11 -> 27        -0.14062
      11 -> 28         0.42040

 Excited State  51:      Singlet-A     13.5420 eV   91.56 nm  f=0.0011  <S**2>=0.000
       6 -> 13        -0.19345
       6 -> 14        -0.15509
      10 -> 25        -0.10535
      10 -> 27         0.14057
      10 -> 28        -0.42010
      11 -> 26        -0.10533
      11 -> 27         0.42029
      11 -> 28         0.14048

 Excited State  52:      Singlet-A     13.5823 eV   91.28 nm  f=0.0000  <S**2>=0.000
      10 -> 27         0.41689
      10 -> 28         0.26578
      11 -> 27         0.26557
      11 -> 28        -0.41671

 Excited State  53:      Singlet-A     13.6585 eV   90.77 nm  f=0.0089  <S**2>=0.000
       7 -> 17        -0.10784
      10 -> 29         0.64708
      11 -> 29         0.11167

 Excited State  54:      Singlet-A     13.6585 eV   90.77 nm  f=0.0089  <S**2>=0.000
       7 -> 18        -0.10782
      10 -> 29        -0.11162
      11 -> 29         0.64736

 Excited State  55:      Singlet-A     13.8103 eV   89.78 nm  f=0.0076  <S**2>=0.000
       7 -> 17         0.67570
      10 -> 29         0.13679

 Excited State  56:      Singlet-A     13.8103 eV   89.78 nm  f=0.0076  <S**2>=0.000
       7 -> 18         0.67570
      11 -> 29         0.13670

 Excited State  57:      Singlet-A     13.9747 eV   88.72 nm  f=0.0047  <S**2>=0.000
       8 -> 17        -0.29873
       8 -> 19         0.37535
       9 -> 18        -0.29873
       9 -> 20         0.37560

 Excited State  58:      Singlet-A     14.0417 eV   88.30 nm  f=0.0000  <S**2>=0.000
       8 -> 20        -0.49955
       9 -> 19         0.50007

 Excited State  59:      Singlet-A     14.0821 eV   88.04 nm  f=0.0960  <S**2>=0.000
       6 -> 13         0.26579
       6 -> 14        -0.23313
       7 -> 18        -0.12429
       8 -> 19         0.24016
       8 -> 20        -0.15076
       9 -> 19        -0.15034
       9 -> 20        -0.24002
      10 -> 25         0.14878
      10 -> 26         0.14100
      10 -> 27         0.15838
      11 -> 25        -0.14097
      11 -> 26         0.14874
      11 -> 28         0.15862
      11 -> 29         0.14027

 Excited State  60:      Singlet-A     14.0821 eV   88.04 nm  f=0.0960  <S**2>=0.000
       6 -> 13         0.23314
       6 -> 14         0.26582
       7 -> 17        -0.12426
       8 -> 19         0.15057
       8 -> 20         0.24035
       9 -> 19         0.23974
       9 -> 20        -0.15047
      10 -> 25         0.14100
      10 -> 26        -0.14880
      10 -> 28        -0.15823
      10 -> 29         0.14075
      11 -> 25         0.14875
      11 -> 26         0.14099
      11 -> 27         0.15844

 Excited State  61:      Singlet-A     14.1315 eV   87.74 nm  f=0.1626  <S**2>=0.000
       6 -> 15         0.42176
       7 -> 21        -0.14484
       8 -> 17         0.14821
       9 -> 18         0.14820
      10 -> 25        -0.10085
      10 -> 27         0.16631
      10 -> 28        -0.26089
      11 -> 26         0.10088
      11 -> 27        -0.26088
      11 -> 28        -0.16628

 Excited State  62:      Singlet-A     14.2542 eV   86.98 nm  f=0.0271  <S**2>=0.000
       6 -> 13         0.12099
       8 -> 19        -0.11437
       9 -> 20         0.11444
       9 -> 21         0.63689

 Excited State  63:      Singlet-A     14.2543 eV   86.98 nm  f=0.0271  <S**2>=0.000
       6 -> 14         0.12095
       8 -> 20        -0.11432
       8 -> 21         0.63698
       9 -> 19        -0.11433

 Excited State  64:      Singlet-A     14.3650 eV   86.31 nm  f=0.0285  <S**2>=0.000
       6 -> 15         0.34816
       6 -> 16         0.23894
       8 -> 17        -0.24343
       8 -> 19        -0.25799
       9 -> 18        -0.24340
       9 -> 20        -0.25799

 Excited State  65:      Singlet-A     14.5871 eV   85.00 nm  f=0.0229  <S**2>=0.000
       6 -> 15         0.31516
       7 -> 21         0.12235
       7 -> 24        -0.13011
       8 -> 17         0.16922
       8 -> 19         0.17787
       9 -> 18         0.16921
       9 -> 20         0.17786
      10 -> 27        -0.10980
      10 -> 28         0.17225
      10 -> 30        -0.11082
      10 -> 31        -0.20632
      11 -> 27         0.17225
      11 -> 28         0.10979
      11 -> 30        -0.20635
      11 -> 31         0.11081

 Excited State  66:      Singlet-A     14.6178 eV   84.82 nm  f=0.0141  <S**2>=0.000
       7 -> 19         0.19300
       7 -> 20         0.67716

 Excited State  67:      Singlet-A     14.6179 eV   84.82 nm  f=0.0140  <S**2>=0.000
       7 -> 19         0.67717
       7 -> 20        -0.19301

 Excited State  68:      Singlet-A     14.7695 eV   83.95 nm  f=0.4847  <S**2>=0.000
       6 -> 13        -0.17591
       8 -> 19         0.29255
       8 -> 20         0.11819
       8 -> 21         0.17449
       9 -> 19         0.11812
       9 -> 20        -0.29246
       9 -> 21         0.16481
      10 -> 25        -0.11519
      10 -> 31         0.13977
      10 -> 32        -0.17794
      10 -> 34        -0.13818
      11 -> 26        -0.11518
      11 -> 30        -0.13981

 Excited State  69:      Singlet-A     14.7695 eV   83.95 nm  f=0.4847  <S**2>=0.000
       6 -> 14        -0.17591
       8 -> 19        -0.11810
       8 -> 20         0.29259
       8 -> 21         0.16475
       9 -> 19         0.29244
       9 -> 20         0.11806
       9 -> 21        -0.17464
      10 -> 26         0.11520
      10 -> 30         0.13977
      11 -> 25        -0.11518
      11 -> 31         0.13972
      11 -> 32         0.17794
      11 -> 34         0.13818

 Excited State  70:      Singlet-A     14.7857 eV   83.85 nm  f=0.0135  <S**2>=0.000
       6 -> 16         0.50395
       7 -> 21         0.44035

 Excited State  71:      Singlet-A     14.9946 eV   82.69 nm  f=0.0000  <S**2>=0.000
      10 -> 30         0.44077
      10 -> 31        -0.23624
      11 -> 30        -0.23679
      11 -> 31        -0.44003

 Excited State  72:      Singlet-A     15.0206 eV   82.54 nm  f=0.0094  <S**2>=0.000
       8 -> 20        -0.10770
       9 -> 19        -0.10768
      10 -> 30         0.44774
      10 -> 31         0.13488
      11 -> 30        -0.13446
      11 -> 31         0.44853

 Excited State  73:      Singlet-A     15.0206 eV   82.54 nm  f=0.0095  <S**2>=0.000
       8 -> 19        -0.10772
       9 -> 20         0.10769
      10 -> 30        -0.13480
      10 -> 31         0.44820
      11 -> 30        -0.44803
      11 -> 31        -0.13452

 Excited State  74:      Singlet-A     15.1614 eV   81.78 nm  f=0.1286  <S**2>=0.000
       6 -> 18         0.11792
      11 -> 32         0.64858
      11 -> 34        -0.10889

 Excited State  75:      Singlet-A     15.1614 eV   81.78 nm  f=0.1286  <S**2>=0.000
       6 -> 17         0.11792
      10 -> 32         0.64858
      10 -> 34        -0.10889

 Excited State  76:      Singlet-A     15.3551 eV   80.74 nm  f=0.0001  <S**2>=0.000
       6 -> 15         0.18487
       6 -> 16        -0.28247
       7 -> 21         0.29862
       7 -> 24        -0.11191
       8 -> 22         0.23321
       9 -> 23        -0.23356
      10 -> 30         0.11803
      10 -> 31         0.21978
      11 -> 30         0.21977
      11 -> 31        -0.11803

 Excited State  77:      Singlet-A     15.4209 eV   80.40 nm  f=0.0149  <S**2>=0.000
       8 -> 22        -0.34477
       8 -> 23        -0.34615
       9 -> 22         0.35008
       9 -> 23        -0.34584

 Excited State  78:      Singlet-A     15.4209 eV   80.40 nm  f=0.0149  <S**2>=0.000
       8 -> 22         0.34765
       8 -> 23        -0.34354
       9 -> 22         0.34704
       9 -> 23         0.34855

 Excited State  79:      Singlet-A     15.4317 eV   80.34 nm  f=0.0000  <S**2>=0.000
       8 -> 23         0.50178
       9 -> 22         0.49665

 Excited State  80:      Singlet-A     15.4334 eV   80.34 nm  f=0.0219  <S**2>=0.000
       6 -> 16        -0.26583
       7 -> 21         0.33549
       8 -> 22        -0.31741
       9 -> 23         0.31513

 Excited State  81:      Singlet-A     15.4976 eV   80.00 nm  f=0.0024  <S**2>=0.000
      11 -> 33         0.70348

 Excited State  82:      Singlet-A     15.4976 eV   80.00 nm  f=0.0024  <S**2>=0.000
      10 -> 33         0.70348

 Excited State  83:      Singlet-A     15.5733 eV   79.61 nm  f=0.0013  <S**2>=0.000
       6 -> 17         0.57300
      10 -> 34         0.33017
      11 -> 34        -0.22080

 Excited State  84:      Singlet-A     15.5734 eV   79.61 nm  f=0.0013  <S**2>=0.000
       6 -> 18         0.57298
      10 -> 34         0.22080
      11 -> 34         0.33020

 Excited State  85:      Singlet-A     15.7113 eV   78.91 nm  f=0.0077  <S**2>=0.000
       9 -> 24         0.67617

 Excited State  86:      Singlet-A     15.7114 eV   78.91 nm  f=0.0077  <S**2>=0.000
       8 -> 24         0.67616

 Excited State  87:      Singlet-A     15.7901 eV   78.52 nm  f=0.0695  <S**2>=0.000
       6 -> 14         0.10318
       6 -> 17         0.24060
       6 -> 18        -0.16860
       7 -> 22        -0.25661
       7 -> 23        -0.23419
      10 -> 34        -0.22610
      11 -> 34         0.43351

 Excited State  88:      Singlet-A     15.7901 eV   78.52 nm  f=0.0695  <S**2>=0.000
       6 -> 13        -0.10318
       6 -> 17        -0.16858
       6 -> 18        -0.24062
       7 -> 22         0.23421
       7 -> 23        -0.25660
      10 -> 34         0.43351
      11 -> 34         0.22609

 Excited State  89:      Singlet-A     15.7962 eV   78.49 nm  f=0.0239  <S**2>=0.000
       6 -> 15         0.11851
       6 -> 21         0.11036
       6 -> 24         0.10199
       7 -> 21        -0.16033
       8 -> 22        -0.29605
       9 -> 23         0.29609
      10 -> 28         0.10181
      10 -> 30         0.13131
      10 -> 31         0.24446
      11 -> 27         0.10175
      11 -> 30         0.24446
      11 -> 31        -0.13126

 Excited State  90:      Singlet-A     15.9459 eV   77.75 nm  f=0.0165  <S**2>=0.000
       7 -> 23         0.16145
      10 -> 35         0.11959
      11 -> 35         0.66864

 Excited State  91:      Singlet-A     15.9459 eV   77.75 nm  f=0.0165  <S**2>=0.000
       7 -> 22        -0.16146
      10 -> 35         0.66863
      11 -> 35        -0.11958

 Excited State  92:      Singlet-A     16.0779 eV   77.11 nm  f=0.3352  <S**2>=0.000
       6 -> 18        -0.14690
       7 -> 23         0.55959
      11 -> 34         0.19761
      11 -> 35        -0.16094

 Excited State  93:      Singlet-A     16.0779 eV   77.11 nm  f=0.3352  <S**2>=0.000
       6 -> 17         0.14690
       7 -> 22         0.55957
      10 -> 34        -0.19763
      10 -> 35         0.16095

 Excited State  94:      Singlet-A     16.2267 eV   76.41 nm  f=0.0452  <S**2>=0.000
      10 -> 36        -0.21883
      11 -> 36         0.65540

 The electronic state is 1-A.
 Alpha  occ. eigenvalues --   -9.92020  -9.89936  -9.88505  -0.70373  -0.62894
 Alpha  occ. eigenvalues --   -0.47138  -0.40813  -0.38948  -0.38948  -0.23954
 Alpha  occ. eigenvalues --   -0.23954
 Alpha virt. eigenvalues --    0.00659   0.01055   0.01055   0.04579   0.06807
 Alpha virt. eigenvalues --    0.09817   0.09818   0.12848   0.12848   0.13332
 Alpha virt. eigenvalues --    0.17771   0.17771   0.18125   0.24741   0.24741

 Mulliken charges:
               1
     1  C    0.471573
     2  C    0.892652
     3  C   -1.046468
     4  H   -0.059992
     5  H   -0.059999
     6  H   -0.060003
     7  H   -0.137763
 Sum of Mulliken charges =  -0.00000

 Dipole moment (field-independent basis, Debye):
    X=              0.0002    Y=             -0.0126    Z=             -0.8326  Tot=              0.8327
 Quadrupole moment (field-independent basis, Debye-Ang):
   XX=            -19.5766   YY=            -19.5754   ZZ=            -14.5283
   XY=             -0.0000   XZ=             -0.0011   YZ=              0.0762

 Normal termination of Gaussian 16 at Mon Mar 21 20:21:21 2022.
