 Gaussian 16, Revision C.01,
 Gaussian 16:  EM64L-G16RevC.01  3-Jul-2019

 ----------------------------------------------------------------------
 #P TD(Nstates=10000) pbepbe/Gen SCF(maxcycles=100) Int(Grid=ultrafine)
 ----------------------------------------------------------------------

 ---------------------
 xGDB7_00001_tier4.com
 ---------------------
 Symbolic Z-matrix:
 Charge =  0 Multiplicity = 1

                         Standard orientation:
 ---------------------------------------------------------------------
 Center     Atomic      Atomic             Coordinates (Angstroms)
 Number     Number       Type             X           Y           Z
 ---------------------------------------------------------------------
      1          8           0       -1.028621   -0.395177   -0.000000
      2          7           0       -0.000000    0.526228   -0.000000
      3          6           0        1.132746   -0.030907    0.000000
      4          1           0       -1.816572    0.151791   -0.000000
      5          1           0        1.994262    0.623439    0.000000
      6          1           0        1.254802   -1.111965    0.000000
 ---------------------------------------------------------------------

 SCF Done:  E(RPBE-PBE) =  -169.512105476     A.U. after   14 cycles

 Excitation energies and oscillator strengths:

 Excited State   1:      Singlet-A"     5.6579 eV  219.13 nm  f=0.0006  <S**2>=0.000
      11 -> 13         0.70562
 This state for optimization and/or second-order correction.
 Total Energy, E(TD-HF/TD-DFT) =  -169.304181077
 Copying the excited state density for this state as the 1-particle RhoCI density.

 Excited State   2:      Singlet-A'     6.4436 eV  192.42 nm  f=0.1111  <S**2>=0.000
       9 -> 13         0.14090
      11 -> 14         0.21448
      11 -> 15        -0.10647
      12 -> 13         0.63966

 Excited State   3:      Singlet-A"     6.5646 eV  188.87 nm  f=0.0018  <S**2>=0.000
      12 -> 14         0.70579

 Excited State   4:      Singlet-A'     6.6917 eV  185.28 nm  f=0.0474  <S**2>=0.000
      11 -> 14         0.66976
      12 -> 13        -0.19522

 Excited State   5:      Singlet-A"     7.4132 eV  167.25 nm  f=0.0155  <S**2>=0.000
      12 -> 15         0.70637

 Excited State   6:      Singlet-A'     7.5283 eV  164.69 nm  f=0.0330  <S**2>=0.000
      11 -> 15         0.68735
      11 -> 16        -0.11369

 Excited State   7:      Singlet-A"     8.5028 eV  145.82 nm  f=0.0019  <S**2>=0.000
      12 -> 16         0.69403
      12 -> 17         0.11767

 Excited State   8:      Singlet-A"     8.7672 eV  141.42 nm  f=0.0072  <S**2>=0.000
      10 -> 13         0.12931
      12 -> 16        -0.11670
      12 -> 17         0.68374

 Excited State   9:      Singlet-A'     8.8004 eV  140.89 nm  f=0.1081  <S**2>=0.000
      11 -> 16         0.51909
      11 -> 17         0.43877
      12 -> 18         0.14010

 Excited State  10:      Singlet-A'     8.8765 eV  139.68 nm  f=0.0933  <S**2>=0.000
      11 -> 16        -0.41051
      11 -> 17         0.55167
      12 -> 18        -0.10169

 Excited State  11:      Singlet-A"     9.0162 eV  137.51 nm  f=0.0001  <S**2>=0.000
      10 -> 13         0.69379
      12 -> 17        -0.12997

 Excited State  12:      Singlet-A"     9.3401 eV  132.74 nm  f=0.0328  <S**2>=0.000
      11 -> 18         0.70338

 Excited State  13:      Singlet-A'     9.5268 eV  130.14 nm  f=0.0134  <S**2>=0.000
      11 -> 16        -0.10868
      11 -> 19         0.24737
      11 -> 21        -0.10802
      12 -> 18         0.62538

 Excited State  14:      Singlet-A"     9.6272 eV  128.79 nm  f=0.0000  <S**2>=0.000
      12 -> 19         0.70549

 Excited State  15:      Singlet-A'     9.7249 eV  127.49 nm  f=0.0058  <S**2>=0.000
      11 -> 19         0.65815
      12 -> 18        -0.22466

 Excited State  16:      Singlet-A"     9.8103 eV  126.38 nm  f=0.0144  <S**2>=0.000
      12 -> 20         0.69477

 Excited State  17:      Singlet-A'     9.8989 eV  125.25 nm  f=0.0103  <S**2>=0.000
       9 -> 13         0.10698
      10 -> 14        -0.11792
      11 -> 20         0.67956

 Excited State  18:      Singlet-A'    10.2252 eV  121.25 nm  f=0.0241  <S**2>=0.000
       9 -> 13        -0.45348
      10 -> 14         0.48539
      11 -> 20         0.16278

 Excited State  19:      Singlet-A"    10.3412 eV  119.89 nm  f=0.0259  <S**2>=0.000
       8 -> 13         0.23751
       9 -> 14         0.62840
      12 -> 21        -0.21343

 Excited State  20:      Singlet-A"    10.4128 eV  119.07 nm  f=0.0075  <S**2>=0.000
       8 -> 13         0.59962
       9 -> 14        -0.30018
      12 -> 21        -0.20877

 Excited State  21:      Singlet-A'    10.4642 eV  118.48 nm  f=0.2459  <S**2>=0.000
       9 -> 13         0.43684
      10 -> 14         0.48508
      11 -> 21        -0.13631
      12 -> 13        -0.10568
      12 -> 23        -0.10449

 Excited State  22:      Singlet-A"    10.6262 eV  116.68 nm  f=0.0079  <S**2>=0.000
       8 -> 13         0.26989
       9 -> 14         0.10893
      12 -> 21         0.63615

 Excited State  23:      Singlet-A'    10.8150 eV  114.64 nm  f=0.0642  <S**2>=0.000
      10 -> 15        -0.10543
      11 -> 16        -0.10934
      11 -> 21         0.64777

 Excited State  24:      Singlet-A"    11.1774 eV  110.92 nm  f=0.0068  <S**2>=0.000
       9 -> 15         0.70518

 Excited State  25:      Singlet-A'    11.1996 eV  110.70 nm  f=0.0678  <S**2>=0.000
      10 -> 15         0.68924

 Excited State  26:      Singlet-A'    11.5697 eV  107.16 nm  f=0.0123  <S**2>=0.000
       8 -> 14         0.58273
      12 -> 22         0.39264

 Excited State  27:      Singlet-A"    11.6363 eV  106.55 nm  f=0.0005  <S**2>=0.000
      11 -> 22         0.70398

 Excited State  28:      Singlet-A'    11.6761 eV  106.19 nm  f=0.1180  <S**2>=0.000
       8 -> 14        -0.37610
      12 -> 22         0.56877

 Excited State  29:      Singlet-A"    11.8834 eV  104.33 nm  f=0.0013  <S**2>=0.000
       7 -> 13        -0.15990
      11 -> 23         0.68426

 Excited State  30:      Singlet-A"    12.0534 eV  102.86 nm  f=0.0005  <S**2>=0.000
      12 -> 24         0.69488

 Excited State  31:      Singlet-A'    12.0572 eV  102.83 nm  f=0.1058  <S**2>=0.000
      10 -> 16        -0.27023
      10 -> 17        -0.14384
      11 -> 24         0.11449
      12 -> 23         0.60257

 Excited State  32:      Singlet-A"    12.1489 eV  102.05 nm  f=0.0001  <S**2>=0.000
       7 -> 13         0.50456
       9 -> 16        -0.24315
      12 -> 25         0.40238

 Excited State  33:      Singlet-A'    12.2563 eV  101.16 nm  f=0.0069  <S**2>=0.000
      10 -> 16        -0.17086
      11 -> 24         0.61364
      12 -> 23        -0.16707

 Excited State  34:      Singlet-A"    12.2928 eV  100.86 nm  f=0.0477  <S**2>=0.000
       7 -> 13        -0.19653
       9 -> 16         0.38968
       9 -> 17         0.17610
      12 -> 25         0.51151

 Excited State  35:      Singlet-A'    12.2963 eV  100.83 nm  f=0.0132  <S**2>=0.000
      10 -> 16        -0.25375
      11 -> 25         0.64222

 Excited State  36:      Singlet-A"    12.3502 eV  100.39 nm  f=0.0185  <S**2>=0.000
       6 -> 13         0.13123
       7 -> 13         0.38143
       9 -> 16         0.49011
       9 -> 17         0.12103
      11 -> 23         0.11423
      12 -> 25        -0.23691

 Excited State  37:      Singlet-A'    12.4181 eV   99.84 nm  f=0.0003  <S**2>=0.000
       8 -> 15         0.49462
      10 -> 16         0.35851
      10 -> 17         0.21048
      11 -> 25         0.18796
      12 -> 23         0.13703

 Excited State  38:      Singlet-A'    12.5433 eV   98.84 nm  f=0.0405  <S**2>=0.000
       7 -> 14        -0.10756
       8 -> 15         0.22819
      10 -> 16        -0.35514
      10 -> 17         0.44263
      11 -> 24        -0.20845
      11 -> 25        -0.17035

 Excited State  39:      Singlet-A"    12.5873 eV   98.50 nm  f=0.0108  <S**2>=0.000
       9 -> 16        -0.19490
       9 -> 17         0.67119

 Excited State  40:      Singlet-A'    12.6870 eV   97.73 nm  f=0.0144  <S**2>=0.000
       8 -> 15        -0.40794
      10 -> 16         0.17511
      10 -> 17         0.45466
      11 -> 26        -0.10613
      12 -> 23         0.17643

 Excited State  41:      Singlet-A"    13.0136 eV   95.27 nm  f=0.0015  <S**2>=0.000
      10 -> 18         0.70357

 Excited State  42:      Singlet-A'    13.1721 eV   94.13 nm  f=0.0122  <S**2>=0.000
       7 -> 14        -0.13575
       8 -> 16         0.11541
       9 -> 18         0.62184
      10 -> 19        -0.19241
      11 -> 26         0.12435

 Excited State  43:      Singlet-A"    13.1795 eV   94.07 nm  f=0.0000  <S**2>=0.000
      12 -> 26         0.70347

 Excited State  44:      Singlet-A'    13.2557 eV   93.53 nm  f=0.0102  <S**2>=0.000
       7 -> 14         0.50709
      10 -> 20        -0.20081
      11 -> 26         0.42972

 Excited State  45:      Singlet-A"    13.4216 eV   92.38 nm  f=0.0010  <S**2>=0.000
       9 -> 19         0.69881

 Excited State  46:      Singlet-A'    13.4347 eV   92.29 nm  f=0.0038  <S**2>=0.000
       7 -> 14        -0.23964
       8 -> 16         0.23107
      10 -> 19         0.51950
      10 -> 20         0.20042
      11 -> 26         0.24069

 Excited State  47:      Singlet-A'    13.5828 eV   91.28 nm  f=0.0113  <S**2>=0.000
       7 -> 14        -0.31300
       8 -> 17        -0.28177
       9 -> 18        -0.15165
      10 -> 19        -0.20103
      11 -> 26         0.35911
      12 -> 27         0.26628

 Excited State  48:      Singlet-A"    13.5882 eV   91.24 nm  f=0.0847  <S**2>=0.000
       6 -> 13        -0.20162
       9 -> 20         0.66652

 Excited State  49:      Singlet-A'    13.7067 eV   90.46 nm  f=0.0504  <S**2>=0.000
       8 -> 17         0.29495
      11 -> 26        -0.12883
      12 -> 27         0.60978

 Excited State  50:      Singlet-A"    13.7277 eV   90.32 nm  f=0.0009  <S**2>=0.000
      11 -> 27         0.69762

 Excited State  51:      Singlet-A'    13.7400 eV   90.24 nm  f=0.0483  <S**2>=0.000
       7 -> 14         0.13115
       8 -> 16        -0.22072
       8 -> 19         0.13436
      10 -> 19        -0.13779
      10 -> 20         0.56955
      11 -> 26         0.16036

 Excited State  52:      Singlet-A'    13.8789 eV   89.33 nm  f=0.0862  <S**2>=0.000
       7 -> 15        -0.18372
       8 -> 16         0.41194
       8 -> 17         0.30322
       9 -> 18        -0.16495
      10 -> 19        -0.27732
      10 -> 20         0.12995
      12 -> 27        -0.13286

 Excited State  53:      Singlet-A'    14.0351 eV   88.34 nm  f=0.1894  <S**2>=0.000
       7 -> 14        -0.11493
       7 -> 15        -0.18386
       8 -> 16        -0.38178
       8 -> 17         0.42584
      10 -> 20        -0.14547
      10 -> 21        -0.10210
      11 -> 26         0.14358
      12 -> 27        -0.12865

 Excited State  54:      Singlet-A'    14.2745 eV   86.86 nm  f=0.0265  <S**2>=0.000
       7 -> 15         0.57523
       8 -> 17         0.12303
       8 -> 20        -0.14193
      10 -> 19        -0.10903
      10 -> 21        -0.25865

 Excited State  55:      Singlet-A"    14.3177 eV   86.59 nm  f=0.0006  <S**2>=0.000
       8 -> 18         0.68964
       9 -> 21         0.12762

 Excited State  56:      Singlet-A"    14.3690 eV   86.29 nm  f=0.0030  <S**2>=0.000
       8 -> 18        -0.13541
       9 -> 21         0.68535

 Excited State  57:      Singlet-A"    14.4762 eV   85.65 nm  f=0.0400  <S**2>=0.000
       6 -> 13         0.48075
       9 -> 20         0.13083
      10 -> 22        -0.14524
      12 -> 28         0.44090

 Excited State  58:      Singlet-A'    14.4915 eV   85.56 nm  f=0.1197  <S**2>=0.000
       7 -> 15         0.22432
       7 -> 16        -0.13155
       8 -> 17         0.10097
      10 -> 21         0.60545
      11 -> 29         0.11432

 Excited State  59:      Singlet-A"    14.7206 eV   84.22 nm  f=0.0433  <S**2>=0.000
       6 -> 13        -0.35236
       9 -> 20        -0.10972
      10 -> 22         0.21640
      12 -> 28         0.54079

 Excited State  60:      Singlet-A'    14.7386 eV   84.12 nm  f=0.0637  <S**2>=0.000
       8 -> 19         0.41765
      11 -> 28         0.54536

 Excited State  61:      Singlet-A'    14.8309 eV   83.60 nm  f=0.0050  <S**2>=0.000
       8 -> 19        -0.18278
       8 -> 20         0.65258

 Excited State  62:      Singlet-A'    14.9231 eV   83.08 nm  f=0.0916  <S**2>=0.000
       7 -> 16         0.13091
       8 -> 19         0.48645
       8 -> 20         0.15618
      11 -> 28        -0.37518
      12 -> 30        -0.13063

 Excited State  63:      Singlet-A"    15.0816 eV   82.21 nm  f=0.0425  <S**2>=0.000
      12 -> 29         0.70210

 Excited State  64:      Singlet-A'    15.1368 eV   81.91 nm  f=0.0403  <S**2>=0.000
       7 -> 16         0.18770
      11 -> 29         0.66831

 Excited State  65:      Singlet-A'    15.3016 eV   81.03 nm  f=0.0024  <S**2>=0.000
       6 -> 14         0.55245
       7 -> 16         0.23905
       7 -> 17         0.12048
       8 -> 21        -0.13634
      12 -> 30         0.24610

 Excited State  66:      Singlet-A'    15.3750 eV   80.64 nm  f=0.1057  <S**2>=0.000
       6 -> 14        -0.15372
       7 -> 16         0.41751
       7 -> 17         0.14969
       8 -> 21        -0.10039
       9 -> 22         0.28651
       9 -> 23         0.14067
      10 -> 24        -0.16312
      11 -> 29        -0.12223
      11 -> 31        -0.17278
      12 -> 30        -0.25237

 Excited State  67:      Singlet-A"    15.3842 eV   80.59 nm  f=0.0190  <S**2>=0.000
       6 -> 13         0.11825
      10 -> 22         0.46697
      10 -> 23         0.18669
      11 -> 30         0.46823

 Excited State  68:      Singlet-A'    15.4267 eV   80.37 nm  f=0.0320  <S**2>=0.000
       9 -> 22         0.53246
       9 -> 23        -0.18311
      12 -> 30         0.37582

 Excited State  69:      Singlet-A'    15.4792 eV   80.10 nm  f=0.0860  <S**2>=0.000
       6 -> 14         0.22320
       7 -> 16        -0.23895
       7 -> 17         0.45985
       8 -> 21         0.13826
       9 -> 22         0.21780
      12 -> 30        -0.27571

 Excited State  70:      Singlet-A"    15.4802 eV   80.09 nm  f=0.1531  <S**2>=0.000
       6 -> 13        -0.13484
      10 -> 22        -0.38348
      10 -> 23        -0.14443
      11 -> 30         0.51256
      12 -> 31        -0.12552

 Excited State  71:      Singlet-A"    15.5454 eV   79.76 nm  f=0.0042  <S**2>=0.000
      10 -> 22        -0.18605
      10 -> 23         0.65328
      12 -> 31        -0.14142

 Excited State  72:      Singlet-A"    15.6162 eV   79.39 nm  f=0.0189  <S**2>=0.000
      10 -> 22        -0.10539
      10 -> 23         0.11308
      12 -> 31         0.68033

 Excited State  73:      Singlet-A'    15.6225 eV   79.36 nm  f=0.0257  <S**2>=0.000
       6 -> 14        -0.15189
       6 -> 15         0.10368
       7 -> 17         0.32520
       8 -> 21         0.34764
       9 -> 22        -0.15362
       9 -> 23        -0.17808
      10 -> 24        -0.16395
      11 -> 31        -0.14553
      12 -> 30         0.28053

 Excited State  74:      Singlet-A'    15.6425 eV   79.26 nm  f=0.0172  <S**2>=0.000
       6 -> 14        -0.11267
       7 -> 17         0.22906
       8 -> 21        -0.23197
      10 -> 25         0.13454
      11 -> 31         0.56946

 Excited State  75:      Singlet-A'    15.7264 eV   78.84 nm  f=0.0108  <S**2>=0.000
       6 -> 14        -0.10331
       7 -> 17         0.14269
       9 -> 23         0.42262
      10 -> 24         0.44153
      11 -> 31        -0.11709
      12 -> 30         0.18612

 Excited State  76:      Singlet-A'    15.7733 eV   78.60 nm  f=0.0277  <S**2>=0.000
       6 -> 15        -0.17993
       7 -> 17        -0.12746
       8 -> 21         0.41415
       9 -> 23         0.34707
      10 -> 24        -0.19524
      10 -> 25        -0.13069
      11 -> 31         0.24135

 Excited State  77:      Singlet-A"    15.8514 eV   78.22 nm  f=0.0000  <S**2>=0.000
       9 -> 24         0.69272

 Excited State  78:      Singlet-A'    15.8838 eV   78.06 nm  f=0.1103  <S**2>=0.000
       6 -> 15        -0.18330
       7 -> 16        -0.16869
       8 -> 21        -0.13230
       9 -> 23         0.19262
      10 -> 24        -0.32632
      10 -> 25         0.43883
      11 -> 31        -0.15774
      11 -> 32        -0.16275

 Excited State  79:      Singlet-A"    16.0069 eV   77.46 nm  f=0.0018  <S**2>=0.000
       7 -> 18         0.67329
       9 -> 24        -0.10375
       9 -> 25         0.17938

 Excited State  80:      Singlet-A"    16.0215 eV   77.39 nm  f=0.0019  <S**2>=0.000
       7 -> 18        -0.18607
       9 -> 25         0.66595

 Excited State  81:      Singlet-A'    16.1602 eV   76.72 nm  f=0.1046  <S**2>=0.000
       6 -> 15        -0.24581
       7 -> 20         0.15739
      10 -> 24         0.15796
      10 -> 25         0.31720
      11 -> 32         0.50093

 Excited State  82:      Singlet-A"    16.1685 eV   76.68 nm  f=0.0006  <S**2>=0.000
      12 -> 32         0.69796

 Excited State  83:      Singlet-A'    16.2532 eV   76.28 nm  f=0.0377  <S**2>=0.000
       6 -> 14         0.10296
       6 -> 15         0.32607
       7 -> 19        -0.11605
       7 -> 20         0.28411
       8 -> 21         0.15269
      10 -> 24         0.13033
      10 -> 25         0.31196
      11 -> 32        -0.27044

 Excited State  84:      Singlet-A'    16.4477 eV   75.38 nm  f=0.0507  <S**2>=0.000
       6 -> 15        -0.34586
       7 -> 19         0.36821
       7 -> 20         0.25507
       9 -> 23        -0.10496
      11 -> 32        -0.27411
      11 -> 33         0.18826
      11 -> 34         0.11615

 Excited State  85:      Singlet-A'    16.5643 eV   74.85 nm  f=0.0712  <S**2>=0.000
       6 -> 15         0.21537
       7 -> 19         0.51619
       9 -> 23         0.10226
      11 -> 32         0.11648
      11 -> 33        -0.33763

 Excited State  86:      Singlet-A"    16.5656 eV   74.84 nm  f=0.0014  <S**2>=0.000
       8 -> 22         0.57591
      12 -> 33         0.39773

 Excited State  87:      Singlet-A'    16.6430 eV   74.50 nm  f=0.0171  <S**2>=0.000
       6 -> 15         0.15810
       7 -> 19         0.22135
       7 -> 20        -0.31060
      10 -> 25         0.11520
      11 -> 33         0.49534

 Excited State  88:      Singlet-A"    16.7550 eV   74.00 nm  f=0.1358  <S**2>=0.000
       8 -> 22        -0.38193
       9 -> 26        -0.16015
      12 -> 33         0.52599
      12 -> 34         0.12570

 Excited State  89:      Singlet-A'    16.7686 eV   73.94 nm  f=0.0152  <S**2>=0.000
       6 -> 15        -0.14200
       7 -> 16         0.11165
       7 -> 20        -0.33057
      10 -> 26         0.42697
      11 -> 32        -0.14575
      11 -> 33        -0.27579
      12 -> 35        -0.12735

 Excited State  90:      Singlet-A"    16.7917 eV   73.84 nm  f=0.0000  <S**2>=0.000
      12 -> 33        -0.14833
      12 -> 34         0.68579

 Excited State  91:      Singlet-A"    16.8739 eV   73.48 nm  f=0.0004  <S**2>=0.000
       8 -> 23         0.70284

 Excited State  92:      Singlet-A"    16.9966 eV   72.95 nm  f=0.0535  <S**2>=0.000
       9 -> 26         0.67936

 Excited State  93:      Singlet-A'    17.0071 eV   72.90 nm  f=0.1100  <S**2>=0.000
       7 -> 20         0.18056
       8 -> 24        -0.15037
      10 -> 26         0.50298
      11 -> 33         0.10539
      11 -> 34         0.26788
      12 -> 35         0.14788

 Excited State  94:      Singlet-A'    17.0692 eV   72.64 nm  f=0.0050  <S**2>=0.000
       6 -> 16        -0.28616
       8 -> 24         0.27814
       8 -> 25         0.11973
      10 -> 26        -0.10859
      11 -> 34         0.51769

 Excited State  95:      Singlet-A'    17.1213 eV   72.42 nm  f=0.0435  <S**2>=0.000
       6 -> 16        -0.22596
       7 -> 20         0.14738
       8 -> 24         0.46741
       8 -> 25        -0.32548
      10 -> 26         0.15237
      11 -> 34        -0.21028

 Excited State  96:      Singlet-A'    17.3103 eV   71.62 nm  f=0.0289  <S**2>=0.000
       6 -> 16         0.16144
       7 -> 20         0.13737
       7 -> 21         0.16177
       8 -> 24         0.27947
       8 -> 25         0.53861
       9 -> 27         0.12255
      11 -> 34        -0.13210

 Excited State  97:      Singlet-A'    17.3439 eV   71.49 nm  f=0.0155  <S**2>=0.000
       6 -> 16         0.18400
       6 -> 17         0.19200
       7 -> 21         0.57137
       8 -> 25        -0.21643
       9 -> 27        -0.13489

 Excited State  98:      Singlet-A"    17.3982 eV   71.26 nm  f=0.0843  <S**2>=0.000
      10 -> 27         0.69417

 Excited State  99:      Singlet-A'    17.4487 eV   71.06 nm  f=0.0512  <S**2>=0.000
       6 -> 16         0.18072
       6 -> 17         0.53061
       7 -> 21        -0.25025
       9 -> 27         0.19243
      12 -> 35        -0.26239

 Excited State 100:      Singlet-A'    17.4899 eV   70.89 nm  f=0.0257  <S**2>=0.000
       6 -> 16        -0.14957
       7 -> 21         0.20148
       8 -> 24        -0.15406
       9 -> 27         0.59032
      12 -> 35         0.19876

 Excited State 101:      Singlet-A'    17.6651 eV   70.19 nm  f=0.0320  <S**2>=0.000
       6 -> 16        -0.18557
       6 -> 17         0.37330
       9 -> 27        -0.22570
      11 -> 34        -0.10929
      11 -> 36         0.16511
      12 -> 35         0.41974

 Excited State 102:      Singlet-A"    17.6912 eV   70.08 nm  f=0.0123  <S**2>=0.000
      11 -> 35         0.70298

 Excited State 103:      Singlet-A"    17.9830 eV   68.95 nm  f=0.0020  <S**2>=0.000
       6 -> 18         0.68055
      12 -> 36         0.16734

 Excited State 104:      Singlet-A"    18.0384 eV   68.73 nm  f=0.0001  <S**2>=0.000
       6 -> 18        -0.16189
      12 -> 36         0.68301

 Excited State 105:      Singlet-A'    18.1482 eV   68.32 nm  f=0.0185  <S**2>=0.000
       6 -> 16         0.17232
       6 -> 20         0.10192
       7 -> 24         0.12767
      11 -> 36         0.59656
      12 -> 35         0.10432

 Excited State 106:      Singlet-A'    18.2062 eV   68.10 nm  f=0.0530  <S**2>=0.000
       6 -> 16        -0.21280
       6 -> 19         0.12801
       6 -> 21        -0.10245
       7 -> 24        -0.16984
       8 -> 24        -0.11495
       8 -> 26         0.44426
      11 -> 36         0.22787
      12 -> 35        -0.22952

 Excited State 107:      Singlet-A'    18.3113 eV   67.71 nm  f=0.0416  <S**2>=0.000
       6 -> 16         0.10968

 The electronic state is 1-A'.
 Alpha  occ. eigenvalues --  -18.81631 -14.05452  -9.92813  -1.00837  -0.78784
 Alpha  occ. eigenvalues --   -0.55929  -0.48700  -0.42507  -0.37967  -0.37673
 Alpha  occ. eigenvalues --   -0.24292  -0.24087
 Alpha virt. eigenvalues --   -0.05212  -0.00236   0.03055   0.06650   0.08068
 Alpha virt. eigenvalues --    0.10075   0.11305   0.11716   0.14503   0.18476
 Alpha virt. eigenvalues --    0.19512   0.20060   0.20796   0.24385   0.26222

 Mulliken charges:
               1
     1  O   -0.328596
     2  N   -0.045847
     3  C    0.596511
     4  H    0.190735
     5  H   -0.256105
     6  H   -0.156698
 Sum of Mulliken charges =  -0.00000

 Dipole moment (field-independent basis, Debye):
    X=              0.1046    Y=             -0.1486    Z=              0.0000  Tot=              0.1817
 Quadrupole moment (field-independent basis, Debye-Ang):
   XX=            -12.3699   YY=            -19.6719   ZZ=            -19.2266
   XY=             -1.3594   XZ=              0.0000   YZ=              0.0000

 Normal termination of Gaussian 16 at Mon Mar 21 20:12:49 2022.
