 Gaussian 16, Revision C.01,
 Gaussian 16:  EM64L-G16RevC.01  3-Jul-2019

 ----------------------------------------------------------------------
 #P TD(Nstates=10000) pbepbe/Gen SCF(maxcycles=100) Int(Grid=ultrafine)
 ----------------------------------------------------------------------

 ---------------------
 xGDB7_00001_tier4.com
 ---------------------
 Symbolic Z-matrix:
 Charge =  0 Multiplicity = 1

                         Standard orientation:
 ---------------------------------------------------------------------
 Center     Atomic      Atomic             Coordinates (Angstroms)
 Number     Number       Type             X           Y           Z
 ---------------------------------------------------------------------
      1          6           0       -0.049078    0.702042   -0.000000
      2          7           0       -0.049078   -0.754243    0.000000
      3          1           0        0.946109    1.166603   -0.000000
      4          1           0       -0.587574    1.062597    0.877770
      5          1           0       -0.587574    1.062597   -0.877770
      6          1           0        0.433525   -1.112175    0.812504
      7          1           0        0.433525   -1.112175   -0.812504
 ---------------------------------------------------------------------

 SCF Done:  E(RPBE-PBE) =  -95.6645380425     A.U. after   12 cycles

 Excitation energies and oscillator strengths:

 Excited State   1:      Singlet-A'     5.5221 eV  224.52 nm  f=0.0040  <S**2>=0.000
       9 -> 10         0.70588
 This state for optimization and/or second-order correction.
 Total Energy, E(TD-HF/TD-DFT) =  -95.4616039014
 Copying the excited state density for this state as the 1-particle RhoCI density.

 Excited State   2:      Singlet-A'     6.5073 eV  190.53 nm  f=0.0367  <S**2>=0.000
       9 -> 11         0.70530

 Excited State   3:      Singlet-A"     7.2768 eV  170.38 nm  f=0.0066  <S**2>=0.000
       9 -> 12         0.70544

 Excited State   4:      Singlet-A'     7.7875 eV  159.21 nm  f=0.0777  <S**2>=0.000
       9 -> 13         0.70525

 Excited State   5:      Singlet-A"     8.2001 eV  151.20 nm  f=0.0007  <S**2>=0.000
       9 -> 14         0.70530

 Excited State   6:      Singlet-A'     8.8437 eV  140.19 nm  f=0.0040  <S**2>=0.000
       9 -> 15         0.70558

 Excited State   7:      Singlet-A'     8.9886 eV  137.93 nm  f=0.0151  <S**2>=0.000
       9 -> 16         0.70605

 Excited State   8:      Singlet-A"     9.0007 eV  137.75 nm  f=0.0060  <S**2>=0.000
       8 -> 10         0.70653

 Excited State   9:      Singlet-A"     9.4154 eV  131.68 nm  f=0.0006  <S**2>=0.000
       9 -> 17         0.70637

 Excited State  10:      Singlet-A"    10.0059 eV  123.91 nm  f=0.0734  <S**2>=0.000
       8 -> 11         0.70534

 Excited State  11:      Singlet-A'    10.0223 eV  123.71 nm  f=0.0465  <S**2>=0.000
       7 -> 10         0.70309

 Excited State  12:      Singlet-A'    10.4640 eV  118.49 nm  f=0.0041  <S**2>=0.000
       6 -> 10        -0.11301
       9 -> 18         0.56647
       9 -> 19         0.38190

 Excited State  13:      Singlet-A'    10.7135 eV  115.73 nm  f=0.0166  <S**2>=0.000
       6 -> 10         0.10859
       7 -> 11         0.18633
       8 -> 12        -0.38455
       9 -> 18        -0.23207
       9 -> 19         0.48519

 Excited State  14:      Singlet-A"    10.7365 eV  115.48 nm  f=0.0121  <S**2>=0.000
       9 -> 20         0.70369

 Excited State  15:      Singlet-A'    10.8814 eV  113.94 nm  f=0.0218  <S**2>=0.000
       6 -> 10         0.20620
       8 -> 12         0.55051
       9 -> 18        -0.23863
       9 -> 19         0.28504

 Excited State  16:      Singlet-A'    11.0018 eV  112.69 nm  f=0.0903  <S**2>=0.000
       6 -> 10         0.13580
       7 -> 11         0.65749
       8 -> 12         0.10534
       9 -> 19        -0.12683

 Excited State  17:      Singlet-A'    11.1322 eV  111.37 nm  f=0.1095  <S**2>=0.000
       6 -> 10         0.63083
       7 -> 11        -0.16414
       8 -> 12        -0.12995
       9 -> 18         0.17395

 Excited State  18:      Singlet-A"    11.2573 eV  110.14 nm  f=0.0202  <S**2>=0.000
       8 -> 13         0.70048

 Excited State  19:      Singlet-A"    11.6999 eV  105.97 nm  f=0.0131  <S**2>=0.000
       7 -> 12         0.70201

 Excited State  20:      Singlet-A'    11.8704 eV  104.45 nm  f=0.0012  <S**2>=0.000
       6 -> 11        -0.27367
       7 -> 13        -0.14067
       8 -> 14         0.55827
       9 -> 21         0.27604

 Excited State  21:      Singlet-A'    11.9978 eV  103.34 nm  f=0.1440  <S**2>=0.000
       6 -> 11         0.63683
       7 -> 13        -0.13195
       8 -> 14         0.23638

 Excited State  22:      Singlet-A'    12.1096 eV  102.38 nm  f=0.1809  <S**2>=0.000
       7 -> 13         0.16312
       8 -> 14        -0.22565
       9 -> 21         0.62685

 Excited State  23:      Singlet-A"    12.1959 eV  101.66 nm  f=0.0081  <S**2>=0.000
       5 -> 10        -0.24757
       9 -> 22         0.65477

 Excited State  24:      Singlet-A"    12.3178 eV  100.65 nm  f=0.0719  <S**2>=0.000
       5 -> 10         0.54930
       8 -> 15        -0.34972
       8 -> 16         0.16649
       9 -> 22         0.19455

 Excited State  25:      Singlet-A"    12.3770 eV  100.17 nm  f=0.0308  <S**2>=0.000
       5 -> 10         0.27537
       7 -> 14         0.24035
       8 -> 15         0.57265
       8 -> 16         0.16215

 Excited State  26:      Singlet-A"    12.4735 eV   99.40 nm  f=0.0157  <S**2>=0.000
       5 -> 10        -0.17702
       6 -> 12        -0.17299
       8 -> 16         0.64818
       9 -> 22        -0.10199

 Excited State  27:      Singlet-A'    12.4973 eV   99.21 nm  f=0.0310  <S**2>=0.000
       6 -> 13        -0.12737
       7 -> 13         0.61136
       8 -> 14         0.17891
       8 -> 17        -0.18533

 Excited State  28:      Singlet-A'    12.6550 eV   97.97 nm  f=0.2082  <S**2>=0.000
       9 -> 23         0.65657
       9 -> 24        -0.18749

 Excited State  29:      Singlet-A"    12.7155 eV   97.51 nm  f=0.0021  <S**2>=0.000
       6 -> 12         0.49038
       7 -> 14        -0.47017
       8 -> 15         0.11114
       8 -> 16         0.13598

 Excited State  30:      Singlet-A"    12.8462 eV   96.51 nm  f=0.1995  <S**2>=0.000
       5 -> 10        -0.12738
       6 -> 12         0.45807
       7 -> 14         0.44086
       8 -> 15        -0.14533
       8 -> 19        -0.13616
       9 -> 22        -0.10569

 Excited State  31:      Singlet-A'    12.9479 eV   95.76 nm  f=0.0007  <S**2>=0.000
       8 -> 17        -0.20857
       9 -> 23         0.18954
       9 -> 24         0.63946

 Excited State  32:      Singlet-A'    13.0528 eV   94.99 nm  f=0.0037  <S**2>=0.000
       6 -> 13        -0.28948
       7 -> 15        -0.15566
       8 -> 17         0.56968
       9 -> 24         0.21148

 Excited State  33:      Singlet-A"    13.2605 eV   93.50 nm  f=0.0155  <S**2>=0.000
       5 -> 11         0.69701

 Excited State  34:      Singlet-A'    13.2873 eV   93.31 nm  f=0.0296  <S**2>=0.000
       6 -> 13        -0.44820
       7 -> 15         0.52730

 Excited State  35:      Singlet-A'    13.5265 eV   91.66 nm  f=0.0216  <S**2>=0.000
       5 -> 12        -0.28185
       6 -> 13         0.33572
       7 -> 13         0.12193
       7 -> 15         0.37723
       7 -> 16         0.28194
       8 -> 17         0.19191
       9 -> 25        -0.10537

 Excited State  36:      Singlet-A"    13.6067 eV   91.12 nm  f=0.0022  <S**2>=0.000
       6 -> 14         0.24024
       8 -> 18         0.65383

 Excited State  37:      Singlet-A"    13.6473 eV   90.85 nm  f=0.0104  <S**2>=0.000
       6 -> 14         0.65204
       8 -> 18        -0.25268

 Excited State  38:      Singlet-A'    13.7205 eV   90.36 nm  f=0.1697  <S**2>=0.000
       5 -> 12         0.15581
       6 -> 13        -0.19374
       7 -> 15        -0.13163
       7 -> 16         0.59266
       8 -> 17        -0.10426
       9 -> 25        -0.10379

 Excited State  39:      Singlet-A'    13.8580 eV   89.47 nm  f=0.0353  <S**2>=0.000
       7 -> 16         0.12009
       9 -> 25         0.68491

 Excited State  40:      Singlet-A"    13.8758 eV   89.35 nm  f=0.0001  <S**2>=0.000
       7 -> 17         0.63499
       8 -> 19         0.30869

 Excited State  41:      Singlet-A"    14.2226 eV   87.17 nm  f=0.0009  <S**2>=0.000
       7 -> 17         0.11744
       8 -> 19        -0.22039
       9 -> 26         0.65368

 Excited State  42:      Singlet-A'    14.2622 eV   86.93 nm  f=0.0162  <S**2>=0.000
       5 -> 12         0.31110
       6 -> 15         0.51138
       6 -> 16        -0.10211
       8 -> 20        -0.31982

 Excited State  43:      Singlet-A"    14.2858 eV   86.79 nm  f=0.1207  <S**2>=0.000
       5 -> 13         0.36215
       7 -> 17        -0.21624
       8 -> 19         0.45948
       9 -> 26         0.25034

 Excited State  44:      Singlet-A'    14.3776 eV   86.23 nm  f=0.0053  <S**2>=0.000
       6 -> 15         0.37475
       6 -> 16         0.45090
       8 -> 20         0.36780

 Excited State  45:      Singlet-A'    14.5451 eV   85.24 nm  f=0.0634  <S**2>=0.000
       5 -> 12        -0.27120
       5 -> 14         0.11830
       6 -> 16         0.21623
       7 -> 18         0.43043
       8 -> 17        -0.10308
       8 -> 20        -0.29652
       9 -> 29        -0.15656
       9 -> 30         0.12994

 Excited State  46:      Singlet-A"    14.5459 eV   85.24 nm  f=0.1610  <S**2>=0.000
       5 -> 13         0.57511
       6 -> 17        -0.10738
       7 -> 17         0.10271
       7 -> 20        -0.10256
       8 -> 19        -0.22967
       9 -> 27        -0.23366

 Excited State  47:      Singlet-A"    14.6886 eV   84.41 nm  f=0.0211  <S**2>=0.000
       5 -> 13         0.12471
       6 -> 17        -0.12184
       7 -> 20        -0.11654
       8 -> 19        -0.10388
       9 -> 27         0.63535
       9 -> 28        -0.16841

 Excited State  48:      Singlet-A'    14.6903 eV   84.40 nm  f=0.2496  <S**2>=0.000
       5 -> 12         0.18972
       5 -> 14        -0.15006
       6 -> 16        -0.17521
       7 -> 18         0.51003
       7 -> 19        -0.10589
       8 -> 20         0.29975
       9 -> 29        -0.12220

 Excited State  49:      Singlet-A'    14.8388 eV   83.55 nm  f=0.0113  <S**2>=0.000
       5 -> 12         0.18037
       5 -> 14         0.13073
       6 -> 15        -0.17135
       6 -> 16         0.27481
       7 -> 18         0.17831
       7 -> 19         0.10718
       9 -> 29         0.52011

 Excited State  50:      Singlet-A"    14.8710 eV   83.37 nm  f=0.0500  <S**2>=0.000
       6 -> 17         0.53797
       7 -> 20        -0.11507
       9 -> 27         0.13385
       9 -> 28         0.38419

 Excited State  51:      Singlet-A"    14.9473 eV   82.95 nm  f=0.0020  <S**2>=0.000
       6 -> 17        -0.41538
       9 -> 28         0.54981

 Excited State  52:      Singlet-A'    14.9997 eV   82.66 nm  f=0.0590  <S**2>=0.000
       5 -> 14        -0.39575
       6 -> 16         0.11047
       7 -> 19        -0.28901
       9 -> 30         0.47026

 Excited State  53:      Singlet-A'    15.0566 eV   82.35 nm  f=0.0605  <S**2>=0.000
       4 -> 11         0.11619
       5 -> 12        -0.28535
       6 -> 13        -0.10146
       6 -> 15         0.20769
       6 -> 16        -0.28204
       7 -> 15        -0.10456
       7 -> 19        -0.12309
       8 -> 20         0.15378
       9 -> 29         0.36404

 Excited State  54:      Singlet-A'    15.1489 eV   81.84 nm  f=0.0138  <S**2>=0.000
       5 -> 14        -0.36438
       6 -> 18         0.18162
       7 -> 19         0.52775

 Excited State  55:      Singlet-A'    15.2286 eV   81.42 nm  f=0.2642  <S**2>=0.000
       5 -> 12         0.12236
       5 -> 14         0.32172
       7 -> 19         0.24743
       8 -> 20         0.13203
       8 -> 22        -0.12047
       9 -> 30         0.48043

 Excited State  56:      Singlet-A"    15.3017 eV   81.03 nm  f=0.0182  <S**2>=0.000
       5 -> 15         0.22768
       7 -> 20         0.62011
       8 -> 21         0.15684

 Excited State  57:      Singlet-A"    15.4236 eV   80.39 nm  f=0.0052  <S**2>=0.000
       7 -> 20        -0.12591
       8 -> 21         0.68131

 Excited State  58:      Singlet-A"    15.6675 eV   79.13 nm  f=0.0179  <S**2>=0.000
       5 -> 15         0.54335
       5 -> 16        -0.41020
       7 -> 20        -0.12412

 Excited State  59:      Singlet-A'    15.7124 eV   78.91 nm  f=0.0734  <S**2>=0.000
       6 -> 18         0.37440
       6 -> 19        -0.25147
       8 -> 22         0.51351

 Excited State  60:      Singlet-A'    15.7423 eV   78.76 nm  f=0.0814  <S**2>=0.000
       5 -> 17        -0.12883
       6 -> 18         0.49793
       8 -> 22        -0.43467

 Excited State  61:      Singlet-A"    15.8311 eV   78.32 nm  f=0.1535  <S**2>=0.000
       5 -> 15         0.30976
       5 -> 16         0.52488
       6 -> 20        -0.27498
       7 -> 20        -0.12171

 Excited State  62:      Singlet-A"    15.9368 eV   77.80 nm  f=0.0144  <S**2>=0.000
       8 -> 23         0.69605
       8 -> 24        -0.10583

 Excited State  63:      Singlet-A"    16.0309 eV   77.34 nm  f=0.0013  <S**2>=0.000
       9 -> 32         0.70286

 Excited State  64:      Singlet-A'    16.0364 eV   77.31 nm  f=0.0176  <S**2>=0.000
       6 -> 18        -0.10116
       6 -> 19        -0.27108
       9 -> 31         0.63511

 Excited State  65:      Singlet-A'    16.1069 eV   76.98 nm  f=0.0742  <S**2>=0.000
       4 -> 10        -0.34824
       5 -> 17         0.10105
       6 -> 19         0.47449
       7 -> 21        -0.19195
       9 -> 31         0.27630

 Excited State  66:      Singlet-A'    16.2814 eV   76.15 nm  f=0.0734  <S**2>=0.000
       4 -> 10        -0.26444
       5 -> 17         0.56131
       6 -> 19        -0.17382
       7 -> 21         0.25479

 Excited State  67:      Singlet-A"    16.3335 eV   75.91 nm  f=0.1079  <S**2>=0.000
       5 -> 15         0.13332
       5 -> 16         0.15354
       6 -> 20         0.61753
       8 -> 24         0.14948

 Excited State  68:      Singlet-A'    16.3930 eV   75.63 nm  f=0.0977  <S**2>=0.000
       4 -> 10        -0.35711
       5 -> 17        -0.34677
       7 -> 21         0.46559

 Excited State  69:      Singlet-A"    16.5933 eV   74.72 nm  f=0.1020  <S**2>=0.000
       6 -> 20        -0.11690
       7 -> 22        -0.30053
       8 -> 24         0.59766

 Excited State  70:      Singlet-A"    16.6612 eV   74.42 nm  f=0.0087  <S**2>=0.000
       7 -> 22         0.62990
       8 -> 24         0.29410

 Excited State  71:      Singlet-A'    16.7671 eV   73.94 nm  f=0.0334  <S**2>=0.000
       4 -> 10         0.28655
       6 -> 19         0.18497
       6 -> 21         0.10350
       7 -> 21         0.28890
       7 -> 23        -0.11399
       7 -> 24         0.10572
       9 -> 33         0.43767

 Excited State  72:      Singlet-A"    16.8757 eV   73.47 nm  f=0.0045  <S**2>=0.000
       5 -> 18         0.69084
       5 -> 19        -0.10288

 Excited State  73:      Singlet-A'    16.8892 eV   73.41 nm  f=0.0148  <S**2>=0.000
       4 -> 10        -0.18567
       6 -> 19        -0.13188
       7 -> 21        -0.21558
       9 -> 33         0.54399
       9 -> 34         0.17818

 Excited State  74:      Singlet-A'    17.0385 eV   72.77 nm  f=0.0292  <S**2>=0.000
       7 -> 21         0.10941
       7 -> 23         0.66450

 Excited State  75:      Singlet-A"    17.2708 eV   71.79 nm  f=0.0091  <S**2>=0.000
       8 -> 25         0.69462

 Excited State  76:      Singlet-A'    17.2834 eV   71.74 nm  f=0.0016  <S**2>=0.000
       5 -> 20         0.12155
       6 -> 21         0.11895
       7 -> 24         0.17239
       9 -> 34         0.64182

 Excited State  77:      Singlet-A'    17.3193 eV   71.59 nm  f=0.0085  <S**2>=0.000
       4 -> 11         0.50637
       6 -> 21        -0.40636
       7 -> 24         0.22446

 Excited State  78:      Singlet-A"    17.4200 eV   71.17 nm  f=0.0276  <S**2>=0.000
       5 -> 19         0.66606
       8 -> 25         0.10707

 Excited State  79:      Singlet-A'    17.5621 eV   70.60 nm  f=0.0179  <S**2>=0.000
       4 -> 11        -0.33549
       5 -> 20        -0.15260
       6 -> 21        -0.22149
       7 -> 24         0.45754
       8 -> 26         0.19902
       8 -> 27        -0.13125
       8 -> 28         0.10585
       9 -> 36        -0.11091

 Excited State  80:      Singlet-A'    17.6133 eV   70.39 nm  f=0.0074  <S**2>=0.000
       4 -> 11        -0.19228
       5 -> 20         0.54299
       6 -> 21        -0.33104

 Excited State  81:      Singlet-A"    17.6552 eV   70.23 nm  f=0.0108  <S**2>=0.000
       6 -> 22         0.69524

 Excited State  82:      Singlet-A'    17.7097 eV   70.01 nm  f=0.0105  <S**2>=0.000
       4 -> 11         0.10831
       5 -> 20         0.15690
       8 -> 26         0.65744

 Excited State  83:      Singlet-A'    17.8158 eV   69.59 nm  f=0.1294  <S**2>=0.000
       5 -> 20         0.31093
       6 -> 21         0.30917
       7 -> 24         0.33283
       7 -> 25         0.15512
       8 -> 26        -0.10369
       8 -> 27        -0.11077
       8 -> 28        -0.11986
       9 -> 34        -0.16765
       9 -> 36        -0.13364

 Excited State  84:      Singlet-A"    17.8434 eV   69.48 nm  f=0.0003  <S**2>=0.000
       9 -> 35         0.70289

 Excited State  85:      Singlet-A'    18.0013 eV   68.88 nm  f=0.0209  <S**2>=0.000
       6 -> 23         0.49489
       8 -> 27        -0.12104
       8 -> 28         0.11393
       9 -> 36         0.45756

 Excited State  86:      Singlet-A"    18.0410 eV   68.72 nm  f=0.0010  <S**2>=0.000
       4 -> 12         0.69708

 Excited State  87:      Singlet-A'    18.2163 eV   68.06 nm  f=0.0335  <S**2>=0.000
       6 -> 23        -0.32363
       6 -> 24         0.26359
       7 -> 25         0.40301
       8 -> 28         0.13819
       9 -> 36         0.34184

 Excited State  88:      Singlet-A"    18.2765 eV   67.84 nm  f=0.0039  <S**2>=0.000
       9 -> 37         0.69215

 Excited State  89:      Singlet-A'    18.3570 eV   67.54 nm  f=0.0052  <S**2>=0.000
       6 -> 23        -0.10193
       6 -> 24         0.42707
       7 -> 25        -0.40719
       8 -> 28        -0.26518
       9 -> 36         0.12815

 Excited State  90:      Singlet-A"    18.4038 eV   67.37 nm  f=0.0071  <S**2>=0.000
       7 -> 27        -0.12241
       8 -> 29         0.62457
       8 -> 30        -0.25658

 Excited State  91:      Singlet-A'    18.4469 eV   67.21 nm  f=0.0740  <S**2>=0.000
       4 -> 13        -0.10908
       6 -> 24         0.15154
       7 -> 25        -0.19126
       8 -> 27         0.44800
       8 -> 28         0.39988

 Excited State  92:      Singlet-A"    18.5032 eV   67.01 nm  f=0.0209  <S**2>=0.000
       5 -> 21         0.30532
       7 -> 27        -0.10761
       8 -> 29         0.23439
       8 -> 30         0.56149

 Excited State  93:      Singlet-A'    18.6649 eV   66.43 nm  f=0.1203  <S**2>=0.000
       4 -> 13         0.47325
       6 -> 23        -0.17066
       6 -> 24        -0.20270
       6 -> 25        -0.17753
       7 -> 24         0.11951
       7 -> 25        -0.20691
       9 -> 36         0.18567

 Excited State  94:      Singlet-A'    18.6820 eV   66.37 nm  f=0.1377  <S**2>=0.000
       4 -> 13         0.39303
       6 -> 23         0.18652
       6 -> 24         0.25105
       6 -> 25         0.14637
       7 -> 25         0.15927
       7 -> 30        -0.12386
       8 -> 27         0.27315
       8 -> 28        -0.23925

 Excited State  95:      Singlet-A"    18.6924 eV   66.33 nm  f=0.0146  <S**2>=0.000
       7 -> 26         0.67613
       8 -> 30        -0.11936

 Excited State  96:      Singlet-A"    18.7641 eV   66.08 nm  f=0.0430  <S**2>=0.000
       5 -> 21         0.60498
       7 -> 26        -0.13190
       7 -> 27         0.10895
       8 -> 30        -0.25277

 Excited State  97:      Singlet-A'    18.9399 eV   65.46 nm  f=0.0610  <S**2>=0.000
       4 -> 13        -0.22414
       5 -> 22         0.46459
       6 -> 24        -0.19253
       7 -> 29        -0.15266
       8 -> 27         0.26441
       8 -> 28        -0.20956

 Excited State  98:      Singlet-A'    19.0287 eV   65.16 nm  f=0.0897  <S**2>=0.000
       4 -> 13         0.14084
       5 -> 22         0.51322
       6 -> 24         0.19597
       6 -> 25         0.10003
       7 -> 29         0.13365
       8 -> 27        -0.18452
       8 -> 28         0.22348
       9 -> 36        -0.14167

 Excited State  99:      Singlet-A"    19.0675 eV   65.02 nm  f=0.0188  <S**2>=0.000
       4 -> 14         0.63340
       5 -> 23         0.24566

 Excited State 100:      Singlet-A"    19.1988 eV   64.58 nm  f=0.0128  <S**2>=0.000
       7 -> 27         0.43037
       7 -> 28         0.54580

 Excited State 101:      Singlet-A"    19.2198 eV   64.51 nm  f=0.0050  <S**2>=0.000
       4 -> 14        -0.20832
       5 -> 23         0.65252
       5 -> 24        -0.13093

 Excited State 102:      Singlet-A"    19.4554 eV   63.73 nm  f=0.0310  <S**2>=0.000
       5 -> 24         0.14990
       6 -> 26         0.11411
       7 -> 27         0.21674
       7 -> 28        -0.21047
       8 -> 31         0.59100

 Excited State 103:      Singlet-A'    19.4688 eV   63.68 nm  f=0.0164  <S**2>=0.000
       4 -> 15        -0.13982
       6 -> 25         0.12419
       7 -> 29         0.24633
       8 -> 32         0.61371

 Excited State 104:      Singlet-A'    19.5199 eV   63.52 nm  f=0.1262  <S**2>=0.000
       6 -> 25         0.47523
       7 -> 29         0.10661
       7 -> 30         0.34919
       8 -> 32        -0.20215
       9 -> 38         0.21550

 Excited State 105:      Singlet-A"    19.5422 eV   63.44 nm  f=0.0202  <S**2>=0.000
       5 -> 24         0.12494
       6 -> 26         0.10728
       6 -> 28         0.10329
       7 -> 27         0.38976
       7 -> 28        -0.33561
       8 -> 29         0.10592
       8 -> 31        -0.36271
       9 -> 39         0.10148

 Excited State 106:      Singlet-A'    19.5566 eV   63.40 nm  f=0.0239  <S**2>=0.000
       6 -> 25        -0.12016
       7 -> 29        -0.17498
       7 -> 30         0.53784
       8 -> 32         0.15361
       9 -> 38        -0.33059

 Excited State 107:      Singlet-A'    19.6155 eV   63.21 nm  f=0.0667  <S**2>=0.000
       4 -> 15         0.49323
       4 -> 16         0.11187
       6 -> 25        -0.13504
       6 -> 29        -0.15947
       7 -> 29         0.38503

 Excited State 108:      Singlet-A"    19.7043 eV   62.92 nm  f=0.0227  <S**2>=0.000
       5 -> 24         0.14731

 The electronic state is 1-A'.
 Alpha  occ. eigenvalues --  -13.97782  -9.91069  -0.79255  -0.58984  -0.44306
 Alpha  occ. eigenvalues --   -0.39580  -0.35944  -0.32356  -0.19581
 Alpha virt. eigenvalues --    0.00507   0.04005   0.06969   0.08782   0.10329
 Alpha virt. eigenvalues --    0.12944   0.13392   0.15084   0.17603   0.19007
 Alpha virt. eigenvalues --    0.19830   0.24081   0.25342   0.26264   0.27782

 Mulliken charges:
               1
     1  C    0.686246
     2  N   -0.258998
     3  H   -0.065900
     4  H   -0.156675
     5  H   -0.156675
     6  H   -0.023999
     7  H   -0.023999
 Sum of Mulliken charges =  -0.00000

 Dipole moment (field-independent basis, Debye):
    X=              1.2120    Y=              0.3046    Z=             -0.0000  Tot=              1.2497
 Quadrupole moment (field-independent basis, Debye-Ang):
   XX=            -15.2281   YY=            -14.5459   ZZ=            -12.8523
   XY=             -2.0722   XZ=              0.0000   YZ=             -0.0000

 Normal termination of Gaussian 16 at Mon Mar 21 20:17:06 2022.
