 Gaussian 16, Revision C.01,
 Gaussian 16:  EM64L-G16RevC.01  3-Jul-2019

 ----------------------------------------------------------------------
 #P TD(Nstates=10000) pbepbe/Gen SCF(maxcycles=100) Int(Grid=ultrafine)
 ----------------------------------------------------------------------

 ---------------------
 xGDB7_00001_tier4.com
 ---------------------
 Symbolic Z-matrix:
 Charge =  0 Multiplicity = 1

                         Standard orientation:
 ---------------------------------------------------------------------
 Center     Atomic      Atomic             Coordinates (Angstroms)
 Number     Number       Type             X           Y           Z
 ---------------------------------------------------------------------
      1          6           0        0.000000    1.163894   -0.193136
      2          8           0       -0.000000   -0.000000    0.585449
      3          6           0       -0.000000   -1.163894   -0.193136
      4          1           0        0.000000    2.015478    0.485827
      5          1           0       -0.890390    1.219204   -0.834404
      6          1           0        0.890390    1.219204   -0.834404
      7          1           0       -0.000000   -2.015478    0.485827
      8          1           0        0.890390   -1.219204   -0.834404
      9          1           0       -0.890390   -1.219204   -0.834404
 ---------------------------------------------------------------------

 SCF Done:  E(RPBE-PBE) =  -154.721996140     A.U. after   12 cycles

 Excitation energies and oscillator strengths:

 Excited State   1:      Singlet-B1     6.0444 eV  205.12 nm  f=0.0260  <S**2>=0.000
      13 -> 14         0.70669
 This state for optimization and/or second-order correction.
 Total Energy, E(TD-HF/TD-DFT) =  -154.499867768
 Copying the excited state density for this state as the 1-particle RhoCI density.

 Excited State   2:      Singlet-A2     6.8573 eV  180.81 nm  f=0.0000  <S**2>=0.000
      13 -> 15         0.70692

 Excited State   3:      Singlet-B1     7.2860 eV  170.17 nm  f=0.0168  <S**2>=0.000
      13 -> 16         0.70350

 Excited State   4:      Singlet-A1     7.6819 eV  161.40 nm  f=0.0115  <S**2>=0.000
      12 -> 14         0.39120
      13 -> 17         0.58789

 Excited State   5:      Singlet-B1     7.7054 eV  160.90 nm  f=0.0217  <S**2>=0.000
      13 -> 18         0.70429

 Excited State   6:      Singlet-A1     7.8430 eV  158.08 nm  f=0.0600  <S**2>=0.000
      12 -> 14         0.58431
      13 -> 17        -0.38242

 Excited State   7:      Singlet-A2     8.3705 eV  148.12 nm  f=0.0000  <S**2>=0.000
      13 -> 19         0.70691

 Excited State   8:      Singlet-B2     8.5729 eV  144.62 nm  f=0.0057  <S**2>=0.000
      12 -> 15         0.70451

 Excited State   9:      Singlet-B1     8.8269 eV  140.46 nm  f=0.0021  <S**2>=0.000
      13 -> 21         0.70577

 Excited State  10:      Singlet-A1     8.9079 eV  139.18 nm  f=0.0270  <S**2>=0.000
      12 -> 16         0.63804
      13 -> 20         0.29073

 Excited State  11:      Singlet-A1     9.0904 eV  136.39 nm  f=0.0516  <S**2>=0.000
      12 -> 16        -0.29064
      13 -> 20         0.62820

 Excited State  12:      Singlet-B2     9.0970 eV  136.29 nm  f=0.0992  <S**2>=0.000
      13 -> 22         0.69957

 Excited State  13:      Singlet-B2     9.3333 eV  132.84 nm  f=0.0550  <S**2>=0.000
      11 -> 14         0.70411

 Excited State  14:      Singlet-B1     9.3859 eV  132.10 nm  f=0.0514  <S**2>=0.000
      12 -> 17         0.70534

 Excited State  15:      Singlet-A1     9.4661 eV  130.98 nm  f=0.0149  <S**2>=0.000
      12 -> 18         0.69802

 Excited State  16:      Singlet-A2     9.7529 eV  127.13 nm  f=0.0000  <S**2>=0.000
      10 -> 14         0.70162

 Excited State  17:      Singlet-A2     9.9350 eV  124.80 nm  f=0.0000  <S**2>=0.000
      13 -> 23         0.69937

 Excited State  18:      Singlet-B1     9.9551 eV  124.54 nm  f=0.0015  <S**2>=0.000
      13 -> 24         0.70660

 Excited State  19:      Singlet-B2    10.0833 eV  122.96 nm  f=0.0630  <S**2>=0.000
      12 -> 19         0.69313
      13 -> 25         0.11826

 Excited State  20:      Singlet-A1    10.1857 eV  121.72 nm  f=0.0303  <S**2>=0.000
      11 -> 15         0.70303

 Excited State  21:      Singlet-B2    10.2071 eV  121.47 nm  f=0.0167  <S**2>=0.000
      12 -> 19        -0.11531
      13 -> 25         0.68607

 Excited State  22:      Singlet-B2    10.4996 eV  118.08 nm  f=0.0245  <S**2>=0.000
      11 -> 16         0.69574

 Excited State  23:      Singlet-B1    10.5302 eV  117.74 nm  f=0.0004  <S**2>=0.000
      10 -> 15         0.19889
      12 -> 20         0.67675

 Excited State  24:      Singlet-B1    10.5978 eV  116.99 nm  f=0.0744  <S**2>=0.000
      10 -> 15         0.67567
      12 -> 20        -0.19614

 Excited State  25:      Singlet-A1    10.6116 eV  116.84 nm  f=0.0390  <S**2>=0.000
      12 -> 21         0.69996

 Excited State  26:      Singlet-A2    10.7263 eV  115.59 nm  f=0.0000  <S**2>=0.000
      10 -> 16        -0.11766
      12 -> 22         0.69339

 Excited State  27:      Singlet-A2    10.8742 eV  114.02 nm  f=0.0000  <S**2>=0.000
      10 -> 16         0.60276
      11 -> 17        -0.27529
      13 -> 26         0.22154

 Excited State  28:      Singlet-A2    10.9459 eV  113.27 nm  f=0.0000  <S**2>=0.000
      10 -> 16         0.17052
      11 -> 17         0.61622
      13 -> 26         0.30094

 Excited State  29:      Singlet-A2    10.9603 eV  113.12 nm  f=0.0000  <S**2>=0.000
      10 -> 16        -0.29856
      11 -> 17        -0.20909
      13 -> 26         0.59678

 Excited State  30:      Singlet-B2    11.0493 eV  112.21 nm  f=0.1399  <S**2>=0.000
      10 -> 17         0.12567
      11 -> 18         0.68700

 Excited State  31:      Singlet-A1    11.1890 eV  110.81 nm  f=0.0077  <S**2>=0.000
      12 -> 24         0.20443
      13 -> 27         0.66869

 Excited State  32:      Singlet-A2    11.4118 eV  108.65 nm  f=0.0000  <S**2>=0.000
      10 -> 18         0.69434

 Excited State  33:      Singlet-B2    11.5552 eV  107.30 nm  f=0.0016  <S**2>=0.000
       7 -> 14         0.14253
      10 -> 17         0.63923
      12 -> 23         0.21818

 Excited State  34:      Singlet-B2    11.6333 eV  106.58 nm  f=0.0307  <S**2>=0.000
       7 -> 14        -0.10553
      10 -> 17        -0.18114
      12 -> 23         0.66575

 Excited State  35:      Singlet-A1    11.7398 eV  105.61 nm  f=0.0037  <S**2>=0.000
       8 -> 14         0.58236
      11 -> 19        -0.36826
      12 -> 24         0.13010

 Excited State  36:      Singlet-B1    11.7469 eV  105.55 nm  f=0.1082  <S**2>=0.000
       9 -> 14         0.70088

 Excited State  37:      Singlet-A1    11.7717 eV  105.32 nm  f=0.0297  <S**2>=0.000
       8 -> 14         0.22378
      11 -> 19         0.49843
      12 -> 24         0.41904

 Excited State  38:      Singlet-A2    11.8357 eV  104.75 nm  f=0.0000  <S**2>=0.000
      11 -> 20         0.12372
      12 -> 25         0.68303

 Excited State  39:      Singlet-A2    11.9767 eV  103.52 nm  f=0.0000  <S**2>=0.000
      13 -> 28         0.69899

 Excited State  40:      Singlet-A1    12.0290 eV  103.07 nm  f=0.0909  <S**2>=0.000
       8 -> 14        -0.32497
      10 -> 22         0.10935
      11 -> 19        -0.28846
      12 -> 24         0.48608
      13 -> 27        -0.14799

 Excited State  41:      Singlet-B1    12.0815 eV  102.62 nm  f=0.0043  <S**2>=0.000
      10 -> 19         0.69916

 Excited State  42:      Singlet-A2    12.1268 eV  102.24 nm  f=0.0000  <S**2>=0.000
      10 -> 21         0.18265
      11 -> 20         0.66843

 Excited State  43:      Singlet-B2    12.1918 eV  101.69 nm  f=0.0003  <S**2>=0.000
       7 -> 14         0.20682
      10 -> 20        -0.17863
      11 -> 21         0.63921

 Excited State  44:      Singlet-B2    12.2458 eV  101.25 nm  f=0.0125  <S**2>=0.000
       7 -> 14         0.63150
      10 -> 17        -0.11453
      11 -> 21        -0.23625

 Excited State  45:      Singlet-B1    12.2951 eV  100.84 nm  f=0.0047  <S**2>=0.000
      11 -> 22         0.68820
      13 -> 29        -0.13023

 Excited State  46:      Singlet-A2    12.5188 eV   99.04 nm  f=0.0000  <S**2>=0.000
       9 -> 15         0.70484

 Excited State  47:      Singlet-B1    12.5536 eV   98.76 nm  f=0.0088  <S**2>=0.000
       9 -> 16         0.12783
      11 -> 22         0.12480
      13 -> 29         0.67112

 Excited State  48:      Singlet-B2    12.5894 eV   98.48 nm  f=0.0486  <S**2>=0.000
       8 -> 15         0.47990
      10 -> 20         0.49974

 Excited State  49:      Singlet-A2    12.6445 eV   98.05 nm  f=0.0000  <S**2>=0.000
      10 -> 21         0.66979
      11 -> 20        -0.15482

 Excited State  50:      Singlet-B2    12.6782 eV   97.79 nm  f=0.0039  <S**2>=0.000
       7 -> 16         0.12447
       8 -> 15         0.48944
      10 -> 20        -0.44211
      11 -> 21        -0.12156

 Excited State  51:      Singlet-B2    12.7321 eV   97.38 nm  f=0.0557  <S**2>=0.000
       8 -> 15        -0.13287
      12 -> 26         0.67757

 Excited State  52:      Singlet-B1    12.7481 eV   97.26 nm  f=0.0015  <S**2>=0.000
       9 -> 16        -0.11445
      12 -> 27         0.69651

 Excited State  53:      Singlet-A1    12.8522 eV   96.47 nm  f=0.0049  <S**2>=0.000
       7 -> 15         0.39445
       9 -> 17        -0.13551
      10 -> 22         0.55400

 Excited State  54:      Singlet-B1    12.9134 eV   96.01 nm  f=0.0000  <S**2>=0.000
       9 -> 16         0.66958
      12 -> 27         0.10781
      13 -> 29        -0.13605

 Excited State  55:      Singlet-A1    13.0061 eV   95.33 nm  f=0.0594  <S**2>=0.000
       7 -> 15         0.41858
       8 -> 16         0.39183
       9 -> 17         0.10296
      10 -> 22        -0.20593
      11 -> 23         0.30840

 Excited State  56:      Singlet-A1    13.0229 eV   95.21 nm  f=0.0014  <S**2>=0.000
       7 -> 15        -0.33160
       8 -> 16         0.54393
       9 -> 17        -0.20164
      10 -> 22         0.17177

 Excited State  57:      Singlet-B1    13.1278 eV   94.44 nm  f=0.0275  <S**2>=0.000
       9 -> 18        -0.12497
      10 -> 23         0.12253
      11 -> 25        -0.12363
      13 -> 30         0.66693

 Excited State  58:      Singlet-A1    13.2372 eV   93.66 nm  f=0.0290  <S**2>=0.000
       7 -> 15        -0.12857
       8 -> 16        -0.13893
       8 -> 18         0.27754
       9 -> 17        -0.16784
      11 -> 23         0.57391

 Excited State  59:      Singlet-B2    13.2997 eV   93.22 nm  f=0.0504  <S**2>=0.000
       7 -> 16        -0.15835
       8 -> 19        -0.11113
      11 -> 24         0.66351

 Excited State  60:      Singlet-B1    13.3254 eV   93.04 nm  f=0.0000  <S**2>=0.000
       9 -> 18         0.57951
      11 -> 25        -0.38750

 Excited State  61:      Singlet-B1    13.3840 eV   92.64 nm  f=0.0080  <S**2>=0.000
       8 -> 17         0.61370
       9 -> 18         0.21807
      10 -> 23         0.15331
      11 -> 25         0.21305

 Excited State  62:      Singlet-A2    13.4053 eV   92.49 nm  f=0.0000  <S**2>=0.000
      13 -> 31         0.69944

 Excited State  63:      Singlet-A1    13.4137 eV   92.43 nm  f=0.0257  <S**2>=0.000
       8 -> 18         0.46901
       9 -> 17         0.50730

 Excited State  64:      Singlet-B2    13.4254 eV   92.35 nm  f=0.1840  <S**2>=0.000
       7 -> 16         0.62353
       7 -> 18        -0.15347
      11 -> 24         0.14176
      12 -> 28         0.22425

 Excited State  65:      Singlet-B1    13.4262 eV   92.34 nm  f=0.0140  <S**2>=0.000
       8 -> 17        -0.33000
       9 -> 18         0.21848
      10 -> 23         0.33702
      11 -> 25         0.46330

 Excited State  66:      Singlet-B1    13.5603 eV   91.43 nm  f=0.0167  <S**2>=0.000
      10 -> 23        -0.13695
      13 -> 32         0.68803

 Excited State  67:      Singlet-A1    13.6257 eV   90.99 nm  f=0.0496  <S**2>=0.000
      10 -> 25        -0.18554
      13 -> 33         0.67069

 Excited State  68:      Singlet-A2    13.6432 eV   90.88 nm  f=0.0000  <S**2>=0.000
      10 -> 24         0.70230

 Excited State  69:      Singlet-A2    13.7458 eV   90.20 nm  f=0.0000  <S**2>=0.000
       7 -> 17         0.70224

 Excited State  70:      Singlet-B2    13.7549 eV   90.14 nm  f=0.0022  <S**2>=0.000
       7 -> 18         0.56895
      12 -> 28         0.39909

 Excited State  71:      Singlet-B1    13.8605 eV   89.45 nm  f=0.0083  <S**2>=0.000
      10 -> 23         0.10426
      13 -> 34         0.68508

 Excited State  72:      Singlet-A1    13.9224 eV   89.05 nm  f=0.0060  <S**2>=0.000
       7 -> 15         0.10985
       7 -> 19         0.15754
       8 -> 18         0.29873
       9 -> 17        -0.26077
      10 -> 22        -0.19309
      10 -> 25         0.34548
      11 -> 23        -0.14831
      11 -> 26         0.23686
      13 -> 35         0.13709

 Excited State  73:      Singlet-B1    13.9279 eV   89.02 nm  f=0.2040  <S**2>=0.000
       8 -> 20         0.17126
       9 -> 18        -0.17540
       9 -> 21        -0.19497
      10 -> 23         0.51047
      11 -> 25        -0.21214
      13 -> 30        -0.15162
      13 -> 32         0.10369
      13 -> 34        -0.15758

 Excited State  74:      Singlet-A1    14.0183 eV   88.44 nm  f=0.0627  <S**2>=0.000
       7 -> 19        -0.14498
       8 -> 18        -0.21172
       9 -> 17         0.17965
       9 -> 20        -0.13149
      10 -> 25         0.52648
      12 -> 29         0.14984
      13 -> 33         0.14146

 Excited State  75:      Singlet-A2    14.0300 eV   88.37 nm  f=0.0000  <S**2>=0.000
       9 -> 19         0.70551

 Excited State  76:      Singlet-B2    14.0466 eV   88.27 nm  f=0.3402  <S**2>=0.000
       7 -> 16        -0.18810
       7 -> 18        -0.33081
       8 -> 19        -0.20144
       9 -> 22        -0.11200
      10 -> 27        -0.10084
      11 -> 24        -0.10620
      12 -> 28         0.47677

 Excited State  77:      Singlet-A1    14.2231 eV   87.17 nm  f=0.0320  <S**2>=0.000
       8 -> 21         0.11125
      11 -> 26         0.32844
      12 -> 29         0.57280
      13 -> 35        -0.13527

 Excited State  78:      Singlet-B2    14.2717 eV   86.87 nm  f=0.0026  <S**2>=0.000
       7 -> 18        -0.13307
       8 -> 19         0.63041
       9 -> 22        -0.18989

 Excited State  79:      Singlet-A1    14.2750 eV   86.85 nm  f=0.0020  <S**2>=0.000
       7 -> 19        -0.20949
       8 -> 18        -0.11316
       9 -> 17         0.10261
       9 -> 20         0.17156
      11 -> 26         0.53307
      12 -> 29        -0.29450

 Excited State  80:      Singlet-A2    14.3135 eV   86.62 nm  f=0.0000  <S**2>=0.000
      11 -> 27         0.70362

 Excited State  81:      Singlet-B1    14.4760 eV   85.65 nm  f=0.0042  <S**2>=0.000
       8 -> 20         0.43439
       9 -> 21         0.54905

 Excited State  82:      Singlet-A1    14.5159 eV   85.41 nm  f=0.0305  <S**2>=0.000
       7 -> 19        -0.35487
       8 -> 21        -0.31650
       9 -> 20         0.42063
      11 -> 26        -0.14634
      12 -> 29         0.12134
      12 -> 30        -0.10419
      13 -> 35         0.12384

 Excited State  83:      Singlet-A1    14.5853 eV   85.01 nm  f=0.0037  <S**2>=0.000
       7 -> 19        -0.34451
       8 -> 21         0.35283
       9 -> 20        -0.17652
      13 -> 35         0.45304

 Excited State  84:      Singlet-B1    14.5951 eV   84.95 nm  f=0.0353  <S**2>=0.000
       8 -> 20        -0.24386
      10 -> 26         0.14729
      13 -> 36         0.63772

 Excited State  85:      Singlet-B1    14.6228 eV   84.79 nm  f=0.0138  <S**2>=0.000
       8 -> 20        -0.27237
       9 -> 21         0.20149
      10 -> 26         0.54982
      13 -> 36        -0.26536

 Excited State  86:      Singlet-A1    14.7136 eV   84.26 nm  f=0.0573  <S**2>=0.000
       7 -> 19         0.21130
       8 -> 21         0.37018
       9 -> 20         0.39733
      10 -> 25         0.10085
      11 -> 28        -0.19923
      12 -> 30        -0.26920
      13 -> 38         0.12098

 Excited State  87:      Singlet-A2    14.7545 eV   84.03 nm  f=0.0000  <S**2>=0.000
       8 -> 22         0.70122

 Excited State  88:      Singlet-B2    14.7674 eV   83.96 nm  f=0.0825  <S**2>=0.000
       7 -> 21         0.23553
       9 -> 22         0.23401
      10 -> 27         0.60938

 Excited State  89:      Singlet-A1    14.7849 eV   83.86 nm  f=0.0006  <S**2>=0.000
       7 -> 19         0.26305
       8 -> 21        -0.10477
       9 -> 20         0.15725
      12 -> 29         0.14232
      12 -> 30         0.39123
      12 -> 32        -0.15759
      13 -> 35         0.37178
      13 -> 38        -0.12535

 Excited State  90:      Singlet-A1    14.8318 eV   83.59 nm  f=0.0479  <S**2>=0.000
       8 -> 21         0.14239
      12 -> 30         0.46040
      13 -> 35        -0.19633
      13 -> 38         0.41982

 Excited State  91:      Singlet-B2    14.8414 eV   83.54 nm  f=0.0715  <S**2>=0.000
       7 -> 21         0.41127
       9 -> 22         0.38609
      10 -> 27        -0.28083
      12 -> 31        -0.11396
      13 -> 37        -0.25751

 Excited State  92:      Singlet-A2    14.8826 eV   83.31 nm  f=0.0000  <S**2>=0.000
       7 -> 20         0.70237

 Excited State  93:      Singlet-B1    14.8868 eV   83.28 nm  f=0.2047  <S**2>=0.000
       7 -> 22         0.32285
       8 -> 20         0.33023
       9 -> 21        -0.27186
      10 -> 23        -0.12697
      10 -> 26         0.37801
      12 -> 33        -0.10295

 Excited State  94:      Singlet-B2    14.9493 eV   82.94 nm  f=0.0168  <S**2>=0.000
       7 -> 21        -0.38055
       9 -> 22         0.43415
      12 -> 31        -0.16828
      13 -> 37         0.30151

 Excited State  95:      Singlet-B2    15.0010 eV   82.65 nm  f=0.1863  <S**2>=0.000
       7 -> 21         0.25586
      10 -> 27        -0.14757
      12 -> 31         0.42074
      13 -> 37         0.46115

 Excited State  96:      Singlet-A1    15.0433 eV   82.42 nm  f=0.0392  <S**2>=0.000
       6 -> 14        -0.11951
       8 -> 21        -0.11837
       9 -> 20        -0.13527
      11 -> 28         0.20122
      12 -> 30        -0.17546
      12 -> 32        -0.20446
      13 -> 35         0.17002
      13 -> 38         0.51340

 Excited State  97:      Singlet-B1    15.1862 eV   81.64 nm  f=0.2348  <S**2>=0.000
       7 -> 22         0.57353
       8 -> 20        -0.14029
       9 -> 21         0.11223
      12 -> 33         0.31121

 Excited State  98:      Singlet-A2    15.2574 eV   81.26 nm  f=0.0000  <S**2>=0.000
      13 -> 39         0.70486

 Excited State  99:      Singlet-B2    15.2684 eV   81.20 nm  f=0.0665  <S**2>=0.000
       7 -> 21        -0.20788
       9 -> 22         0.14197
      11 -> 29         0.15762
      12 -> 31         0.50147
      13 -> 37        -0.28071
      13 -> 40         0.14235

 Excited State 100:      Singlet-B1    15.3533 eV   80.75 nm  f=0.1728  <S**2>=0.000
       7 -> 22        -0.21100
       9 -> 21        -0.10675
       9 -> 24        -0.13213
      12 -> 33         0.61034

 Excited State 101:      Singlet-A1    15.3831 eV   80.60 nm  f=0.0178  <S**2>=0.000
       6 -> 14        -0.15146
      11 -> 28         0.18082
      12 -> 32         0.61170

 Excited State 102:      Singlet-A1    15.5387 eV   79.79 nm  f=0.1297  <S**2>=0.000
       8 -> 24         0.23552
      11 -> 28        -0.15136
      12 -> 34         0.61316

 Excited State 103:      Singlet-B2    15.5642 eV   79.66 nm  f=0.0092  <S**2>=0.000
       9 -> 25         0.14261
      13 -> 37         0.10339
      13 -> 40         0.67128

 Excited State 104:      Singlet-A1    15.5838 eV   79.56 nm  f=0.0628  <S**2>=0.000
       6 -> 14        -0.14865
       8 -> 21        -0.12003
       8 -> 24         0.44959
      11 -> 28        -0.39791
      12 -> 34        -0.27931

 Excited State 105:      Singlet-A2    15.5908 eV   79.52 nm  f=0.0000  <S**2>=0.000
       8 -> 25         0.16216
       9 -> 23         0.63930
      13 -> 41        -0.23579

 Excited State 106:      Singlet-B1    15.6060 eV   79.45 nm  f=0.0415  <S**2>=0.000
       9 -> 24         0.63267
      10 -> 28        -0.27398
      12 -> 33         0.10454

 Excited State 107:      Singlet-B2    15.6702 eV   79.12 nm  f=0.0301  <S**2>=0.000
       8 -> 23         0.68696

 Excited State 108:      Singlet-B1    15.6891 eV   79.03 nm  f=0.0002  <S**2>=0.000
       9 -> 24         0.27764
      10 -> 28         0.64649

 Excited State 109:      Singlet-A2    15.7623 eV   78.66 nm  f=0.0000  <S**2>=0.000
       8 -> 25         0.32169
       9 -> 23         0.14001
      13 -> 41         0.61050

 Excited State 110:      Singlet-A1    15.8753 eV   78.10 nm  f=0.0947  <S**2>=0.000
       6 -> 14         0.53182
       7 -> 23        -0.29059
       8 -> 24        -0.11822
      11 -> 28        -0.13935
      12 -> 32         0.12066
      12 -> 34        -0.12640

 Excited State 111:      Singlet-B2    15.8769 eV   78.09 nm  f=0.0329  <S**2>=0.000
       9 -> 25         0.48137
      11 -> 29        -0.44517
      11 -> 30         0.13145

 Excited State 112:      Singlet-B2    15.9243 eV   77.86 nm  f=0.2240  <S**2>=0.000
       6 -> 15         0.11166
       9 -> 25         0.46525
      11 -> 29         0.44911

 Excited State 113:      Singlet-A2    15.9385 eV   77.79 nm  f=0.0000  <S**2>=0.000
       8 -> 25         0.57566
       9 -> 23        -0.20838
      10 -> 29         0.18464
      13 -> 41        -0.25013

 Excited State 114:      Singlet-A1    16.0055 eV   77.46 nm  f=0.1747  <S**2>=0.000
       7 -> 23        -0.31183
       7 -> 26         0.11238
       8 -> 21         0.14211
       8 -> 24         0.39754
       9 -> 27         0.13950
      11 -> 28         0.34344

 Excited State 115:      Singlet-B2    16.0521 eV   77.24 nm  f=0.0023  <S**2>=0.000
       7 -> 24         0.68850

 Excited State 116:      Singlet-A2    16.1000 eV   77.01 nm  f=0.0000  <S**2>=0.000
       8 -> 25        -0.14957
       9 -> 26         0.11553
      10 -> 29         0.67032

 Excited State 117:      Singlet-A1    16.1976 eV   76.54 nm  f=0.0016  <S**2>=0.000
       6 -> 14         0.28486
       7 -> 23         0.48942
       7 -> 26         0.12714
       8 -> 24         0.15141
      12 -> 34        -0.10740
      12 -> 36         0.26737

 Excited State 118:      Singlet-B1    16.2143 eV   76.47 nm  f=0.0022  <S**2>=0.000
       7 -> 25         0.61347
      12 -> 35         0.33951

 Excited State 119:      Singlet-A1    16.3724 eV   75.73 nm  f=0.0204  <S**2>=0.000
       6 -> 14        -0.15237
       7 -> 23        -0.17553
      12 -> 36         0.63579

 Excited State 120:      Singlet-B2    16.3944 eV   75.63 nm  f=0.0171  <S**2>=0.000
      11 -> 30         0.57377
      13 -> 42         0.37194

 Excited State 121:      Singlet-B1    16.4210 eV   75.50 nm  f=0.0981  <S**2>=0.000
       7 -> 25        -0.27296
       8 -> 27        -0.15721
      12 -> 35         0.56603
      12 -> 38        -0.22143

 Excited State 122:      Singlet-B2    16.4440 eV   75.40 nm  f=0.1423  <S**2>=0.000

 The electronic state is 1-A1.
 Alpha  occ. eigenvalues --  -18.77136  -9.93733  -9.93733  -0.94736  -0.65516
 Alpha  occ. eigenvalues --   -0.56909  -0.43859  -0.42629  -0.42342  -0.35180
 Alpha  occ. eigenvalues --   -0.33589  -0.27845  -0.21637
 Alpha virt. eigenvalues --    0.00466   0.03520   0.04538   0.06555   0.06581
 Alpha virt. eigenvalues --    0.09103   0.10745   0.10755   0.11507   0.14692
 Alpha virt. eigenvalues --    0.14940   0.15513   0.18629   0.19031   0.22221

 Mulliken charges:
               1
     1  C    0.638069
     2  O   -0.783360
     3  C    0.638069
     4  H   -0.224690
     5  H   -0.010850
     6  H   -0.010850
     7  H   -0.224690
     8  H   -0.010850
     9  H   -0.010850
 Sum of Mulliken charges =   0.00000

 Dipole moment (field-independent basis, Debye):
    X=              0.0000    Y=              0.0000    Z=             -1.1948  Tot=              1.1948
 Quadrupole moment (field-independent basis, Debye-Ang):
   XX=            -20.5528   YY=            -17.8210   ZZ=            -21.6193
   XY=             -0.0000   XZ=              0.0000   YZ=             -0.0000

 Normal termination of Gaussian 16 at Mon Mar 21 20:12:31 2022.
