 Gaussian 16, Revision C.01,
 Gaussian 16:  EM64L-G16RevC.01  3-Jul-2019

 ----------------------------------------------------------------------
 #P TD(Nstates=10000) pbepbe/Gen SCF(maxcycles=100) Int(Grid=ultrafine)
 ----------------------------------------------------------------------

 ---------------------
 xGDB7_00001_tier4.com
 ---------------------
 Symbolic Z-matrix:
 Charge =  0 Multiplicity = 1

                         Standard orientation:
 ---------------------------------------------------------------------
 Center     Atomic      Atomic             Coordinates (Angstroms)
 Number     Number       Type             X           Y           Z
 ---------------------------------------------------------------------
      1          6           0        0.000000    0.000000    0.597322
      2          6           0        0.000000    0.000000   -0.597322
      3          1           0        0.000000    0.000000    1.661338
      4          1           0        0.000000    0.000000   -1.661338
 ---------------------------------------------------------------------

 SCF Done:  E(RPBE-PBE) =  -77.1650879259     A.U. after   10 cycles

 Excitation energies and oscillator strengths:

 Excited state symmetry could not be determined.
 Excited State   1:      Singlet-?Sym    7.0077 eV  176.93 nm  f=0.0000  <S**2>=0.000
       6 ->  9        -0.50000
       7 ->  8         0.50000
 This state for optimization and/or second-order correction.
 Total Energy, E(TD-HF/TD-DFT) =  -76.9075597252
 Copying the excited state density for this state as the 1-particle RhoCI density.

 Excited state symmetry could not be determined.
 Excited State   2:      Singlet-?Sym    7.2013 eV  172.17 nm  f=0.0000  <S**2>=0.000
       6 ->  8         0.49993
       7 ->  9        -0.49993

 Excited state symmetry could not be determined.
 Excited State   3:      Singlet-?Sym    7.2013 eV  172.17 nm  f=0.0000  <S**2>=0.000
       6 ->  9         0.49993
       7 ->  8         0.49993

 Excited state symmetry could not be determined.
 Excited State   4:      Singlet-?Sym    8.0219 eV  154.56 nm  f=0.0852  <S**2>=0.000
       6 -> 10        -0.46970
       7 -> 10         0.52820

 Excited state symmetry could not be determined.
 Excited State   5:      Singlet-?Sym    8.0219 eV  154.56 nm  f=0.0852  <S**2>=0.000
       6 -> 10         0.52820
       7 -> 10         0.46970

 Excited state symmetry could not be determined.
 Excited State   6:      Singlet-?Sym    8.2258 eV  150.73 nm  f=0.0000  <S**2>=0.000
       6 -> 11         0.18387
       7 -> 11         0.68104

 Excited state symmetry could not be determined.
 Excited State   7:      Singlet-?Sym    8.2258 eV  150.73 nm  f=0.0000  <S**2>=0.000
       6 -> 11         0.68104
       7 -> 11        -0.18387

 Excited state symmetry could not be determined.
 Excited State   8:      Singlet-?Sym    9.6321 eV  128.72 nm  f=0.0425  <S**2>=0.000
       7 -> 12         0.69878

 Excited state symmetry could not be determined.
 Excited State   9:      Singlet-?Sym    9.6321 eV  128.72 nm  f=0.0425  <S**2>=0.000
       6 -> 12         0.69878

 Excited state symmetry could not be determined.
 Excited State  10:      Singlet-?Sym   10.1799 eV  121.79 nm  f=0.7809  <S**2>=0.000
       6 ->  8         0.46313
       6 -> 18         0.18555
       7 ->  9         0.46313
       7 -> 19         0.18555

 Excited state symmetry could not be determined.
 Excited State  11:      Singlet-?Sym   11.2505 eV  110.20 nm  f=0.0000  <S**2>=0.000
       6 -> 13         0.54038
       7 -> 13         0.43794

 Excited state symmetry could not be determined.
 Excited State  12:      Singlet-?Sym   11.2505 eV  110.20 nm  f=0.0000  <S**2>=0.000
       6 -> 13        -0.43794
       7 -> 13         0.54038

 Excited state symmetry could not be determined.
 Excited State  13:      Singlet-?Sym   11.4331 eV  108.44 nm  f=0.0000  <S**2>=0.000
       6 -> 15        -0.49996
       7 -> 14         0.49996

 Excited state symmetry could not be determined.
 Excited State  14:      Singlet-?Sym   11.4331 eV  108.44 nm  f=0.0000  <S**2>=0.000
       6 -> 14         0.49996
       7 -> 15         0.49996

 Excited state symmetry could not be determined.
 Excited State  15:      Singlet-?Sym   11.4657 eV  108.13 nm  f=0.0000  <S**2>=0.000
       6 -> 14         0.50000
       7 -> 15        -0.50000

 Excited state symmetry could not be determined.
 Excited State  16:      Singlet-?Sym   12.2077 eV  101.56 nm  f=0.0000  <S**2>=0.000
       5 -> 10         0.10466
       5 -> 12        -0.15469
       6 -> 15         0.47600
       7 -> 14         0.47600

 Excited state symmetry could not be determined.
 Excited State  17:      Singlet-?Sym   12.3193 eV  100.64 nm  f=0.0000  <S**2>=0.000
       5 ->  8         0.53957
       5 ->  9         0.43799

 Excited state symmetry could not be determined.
 Excited State  18:      Singlet-?Sym   12.3193 eV  100.64 nm  f=0.0000  <S**2>=0.000
       5 ->  8        -0.43799
       5 ->  9         0.53957

 Excited state symmetry could not be determined.
 Excited State  19:      Singlet-?Sym   13.0187 eV   95.24 nm  f=0.0000  <S**2>=0.000
       6 -> 16         0.49961
       7 -> 17        -0.49961

 Excited state symmetry could not be determined.
 Excited State  20:      Singlet-?Sym   13.0187 eV   95.24 nm  f=0.0000  <S**2>=0.000
       6 -> 17         0.49961
       7 -> 16         0.49961

 Excited State  21:      Singlet-SGG   13.1332 eV   94.40 nm  f=0.0000  <S**2>=0.000
       5 -> 10         0.69411

 Excited State  22:      Singlet-SGU   13.2784 eV   93.37 nm  f=0.2953  <S**2>=0.000
       5 -> 11         0.70117

 Excited state symmetry could not be determined.
 Excited State  23:      Singlet-?Sym   13.5164 eV   91.73 nm  f=0.1428  <S**2>=0.000
       4 ->  8        -0.34809
       6 -> 16         0.10519
       6 -> 17        -0.41666
       7 -> 16         0.41666
       7 -> 17         0.10519

 Excited state symmetry could not be determined.
 Excited State  24:      Singlet-?Sym   13.5164 eV   91.73 nm  f=0.1428  <S**2>=0.000
       4 ->  9        -0.34809
       6 -> 16         0.41666
       6 -> 17         0.10519
       7 -> 16        -0.10519
       7 -> 17         0.41666

 Excited state symmetry could not be determined.
 Excited State  25:      Singlet-?Sym   13.7544 eV   90.14 nm  f=0.0000  <S**2>=0.000
       6 -> 19        -0.50000
       7 -> 18         0.50000

 Excited state symmetry could not be determined.
 Excited State  26:      Singlet-?Sym   13.7576 eV   90.12 nm  f=0.0000  <S**2>=0.000
       6 -> 18         0.49985
       7 -> 19        -0.49985

 Excited state symmetry could not be determined.
 Excited State  27:      Singlet-?Sym   13.7577 eV   90.12 nm  f=0.0000  <S**2>=0.000
       6 -> 19         0.49985
       7 -> 18         0.49985

 Excited State  28:      Singlet-SGU   14.6452 eV   84.66 nm  f=0.0680  <S**2>=0.000
       4 -> 10         0.58953
       6 -> 18         0.26516
       7 -> 19         0.26516

 Excited State  29:      Singlet-SGG   14.7621 eV   83.99 nm  f=0.0000  <S**2>=0.000
       4 -> 11        -0.48008
       5 -> 12         0.51436

 Excited state symmetry could not be determined.
 Excited State  30:      Singlet-?Sym   15.0648 eV   82.30 nm  f=0.4183  <S**2>=0.000
       4 ->  8         0.22572
       4 ->  9         0.51766
       5 -> 14        -0.12811
       6 -> 16         0.20488
       7 -> 17         0.20488
       7 -> 21        -0.17737
       7 -> 22         0.12009

 Excited state symmetry could not be determined.
 Excited State  31:      Singlet-?Sym   15.0648 eV   82.30 nm  f=0.4183  <S**2>=0.000
       4 ->  8         0.51766
       4 ->  9        -0.22572
       5 -> 15        -0.12811
       6 -> 17        -0.20488
       6 -> 21        -0.17737
       6 -> 22         0.12009
       7 -> 16         0.20488

 Excited State  32:      Singlet-SGU   15.4231 eV   80.39 nm  f=0.0102  <S**2>=0.000
       4 -> 10         0.34993
       4 -> 12         0.24057
       5 -> 13         0.23869
       6 ->  8         0.12432
       6 -> 18        -0.31991
       7 ->  9         0.12432
       7 -> 19        -0.31991

 Excited State  33:      Singlet-SGG   15.7526 eV   78.71 nm  f=0.0000  <S**2>=0.000
       4 -> 11         0.48387
       4 -> 13         0.15837
       5 -> 12         0.42600
       6 -> 15         0.10639
       7 -> 14         0.10639

 Excited state symmetry could not be determined.
 Excited State  34:      Singlet-?Sym   15.8790 eV   78.08 nm  f=0.0000  <S**2>=0.000
       6 -> 20         0.69812

 Excited state symmetry could not be determined.
 Excited State  35:      Singlet-?Sym   15.8790 eV   78.08 nm  f=0.0000  <S**2>=0.000
       7 -> 20         0.69812

 Excited state symmetry could not be determined.
 Excited State  36:      Singlet-?Sym   15.9500 eV   77.73 nm  f=0.1931  <S**2>=0.000
       5 -> 15        -0.17673
       6 -> 21         0.60292
       7 -> 21         0.26902

 Excited state symmetry could not be determined.
 Excited State  37:      Singlet-?Sym   15.9500 eV   77.73 nm  f=0.1931  <S**2>=0.000
       5 -> 14        -0.17673
       6 -> 21        -0.26902
       7 -> 21         0.60292

 Excited state symmetry could not be determined.
 Excited State  38:      Singlet-?Sym   16.4973 eV   75.15 nm  f=0.2276  <S**2>=0.000
       5 -> 14         0.59553
       7 -> 21         0.11136
       7 -> 22         0.33987

 Excited state symmetry could not be determined.
 Excited State  39:      Singlet-?Sym   16.4973 eV   75.15 nm  f=0.2276  <S**2>=0.000
       5 -> 15         0.59553
       6 -> 21         0.11136
       6 -> 22         0.33987

 Excited State  40:      Singlet-SGU   16.5255 eV   75.03 nm  f=0.0093  <S**2>=0.000
       4 -> 10        -0.12294
       4 -> 12         0.56837
       5 -> 13         0.24161
       6 -> 18         0.15041
       6 -> 29        -0.12087
       7 -> 19         0.15041
       7 -> 28        -0.12087

 Excited state symmetry could not be determined.
 Excited State  41:      Singlet-?Sym   16.7343 eV   74.09 nm  f=0.0000  <S**2>=0.000
       6 -> 23         0.39685
       6 -> 24        -0.30417
       7 -> 23        -0.30418
       7 -> 24        -0.39685

 Excited state symmetry could not be determined.
 Excited State  42:      Singlet-?Sym   16.7343 eV   74.09 nm  f=0.0000  <S**2>=0.000
       6 -> 23         0.30418
       6 -> 24         0.39685
       7 -> 23         0.39685
       7 -> 24        -0.30417

 Excited state symmetry could not be determined.
 Excited State  43:      Singlet-?Sym   16.8396 eV   73.63 nm  f=0.2831  <S**2>=0.000
       4 ->  8        -0.16106
       5 -> 15        -0.27073
       6 -> 21        -0.10783
       6 -> 22         0.56926
       7 -> 22         0.18240

 Excited state symmetry could not be determined.
 Excited State  44:      Singlet-?Sym   16.8396 eV   73.63 nm  f=0.2831  <S**2>=0.000
       4 ->  9        -0.16106
       5 -> 14        -0.27073
       6 -> 22        -0.18240
       7 -> 21        -0.10783
       7 -> 22         0.56926

 Excited state symmetry could not be determined.
 Excited State  45:      Singlet-?Sym   16.9863 eV   72.99 nm  f=0.0000  <S**2>=0.000
       3 ->  9        -0.11128
       6 -> 23         0.48355
       7 -> 24         0.48355

 Excited state symmetry could not be determined.
 Excited State  46:      Singlet-?Sym   16.9863 eV   72.99 nm  f=0.0000  <S**2>=0.000
       3 ->  8         0.11128
       6 -> 24         0.48355
       7 -> 23        -0.48355

 Excited State  47:      Singlet-SGU   16.9970 eV   72.94 nm  f=0.7275  <S**2>=0.000
       4 -> 12        -0.32226
       5 -> 13         0.59976

 Excited state symmetry could not be determined.
 Excited State  48:      Singlet-?Sym   17.3161 eV   71.60 nm  f=0.0000  <S**2>=0.000
       6 -> 26        -0.49961
       7 -> 25         0.49961

 Excited state symmetry could not be determined.
 Excited State  49:      Singlet-?Sym   17.3161 eV   71.60 nm  f=0.0000  <S**2>=0.000
       6 -> 25         0.49961
       7 -> 26         0.49961

 Excited state symmetry could not be determined.
 Excited State  50:      Singlet-?Sym   17.5552 eV   70.63 nm  f=0.0000  <S**2>=0.000
       6 -> 25         0.50000
       7 -> 26        -0.50000

 Excited state symmetry could not be determined.
 Excited State  51:      Singlet-?Sym   17.8352 eV   69.52 nm  f=0.0000  <S**2>=0.000
       3 -> 10        -0.10844
       4 -> 13         0.16714
       6 -> 26         0.46121
       7 -> 25         0.46121

 Excited state symmetry could not be determined.
 Excited State  52:      Singlet-?Sym   18.0937 eV   68.52 nm  f=0.0000  <S**2>=0.000
       3 ->  8         0.19326
       6 -> 27         0.67452

 Excited state symmetry could not be determined.
 Excited State  53:      Singlet-?Sym   18.0937 eV   68.52 nm  f=0.0000  <S**2>=0.000
       3 ->  9         0.19326
       7 -> 27         0.67452

 Excited state symmetry could not be determined.
 Excited State  54:      Singlet-?Sym   18.1486 eV   68.32 nm  f=0.0000  <S**2>=0.000
       4 -> 14         0.67875
       4 -> 15         0.17889

 Excited state symmetry could not be determined.
 Excited State  55:      Singlet-?Sym   18.1486 eV   68.32 nm  f=0.0000  <S**2>=0.000
       4 -> 14        -0.17889
       4 -> 15         0.67875

 Excited state symmetry could not be determined.
 Excited State  56:      Singlet-?Sym   18.1962 eV   68.14 nm  f=0.0000  <S**2>=0.000
       5 -> 16         0.70660

 Excited state symmetry could not be determined.
 Excited State  57:      Singlet-?Sym   18.1962 eV   68.14 nm  f=0.0000  <S**2>=0.000
       5 -> 17         0.70660

 Excited state symmetry could not be determined.
 Excited State  58:      Singlet-?Sym   18.4843 eV   67.08 nm  f=0.0000  <S**2>=0.000
       6 -> 28         0.49951
       7 -> 29         0.49951

 Excited state symmetry could not be determined.
 Excited State  59:      Singlet-?Sym   18.4843 eV   67.08 nm  f=0.0000  <S**2>=0.000
       6 -> 29        -0.49951
       7 -> 28         0.49951

 Excited State  60:      Singlet-SGG   18.5078 eV   66.99 nm  f=0.0000  <S**2>=0.000
       4 -> 13         0.65353
       6 -> 26        -0.13861
       7 -> 25        -0.13861

 Excited state symmetry could not be determined.
 Excited State  61:      Singlet-?Sym   18.6016 eV   66.65 nm  f=0.0000  <S**2>=0.000
       6 -> 28         0.50000
       7 -> 29        -0.50000

 Excited state symmetry could not be determined.
 Excited State  62:      Singlet-?Sym   18.6429 eV   66.50 nm  f=0.0000  <S**2>=0.000
       5 -> 18         0.69626

 Excited state symmetry could not be determined.
 Excited State  63:      Singlet-?Sym   18.6429 eV   66.50 nm  f=0.0000  <S**2>=0.000
       5 -> 19         0.69626

 Excited state symmetry could not be determined.
 Excited State  64:      Singlet-?Sym   18.7690 eV   66.06 nm  f=0.0177  <S**2>=0.000
       3 -> 11        -0.31316
       6 -> 29         0.43290
       7 -> 28         0.43290

 Excited state symmetry could not be determined.
 Excited State  65:      Singlet-?Sym   19.0685 eV   65.02 nm  f=0.0000  <S**2>=0.000
       3 ->  8         0.60390
       3 ->  9         0.25830
       6 -> 27        -0.17138

 Excited state symmetry could not be determined.
 Excited State  66:      Singlet-?Sym   19.0685 eV   65.02 nm  f=0.0000  <S**2>=0.000
       3 ->  8        -0.25830
       3 ->  9         0.60390
       7 -> 27        -0.17138

 Excited State  67:      Singlet-SGG   19.3265 eV   64.15 nm  f=0.0000  <S**2>=0.000
       3 -> 10         0.69188

 Excited State  68:      Singlet-SGU   19.8125 eV   62.58 nm  f=0.0105  <S**2>=0.000
       3 -> 11         0.60999
       3 -> 13         0.11779
       5 -> 27         0.10464
       6 -> 29         0.17413
       7 -> 28         0.17413

 Excited state symmetry could not be determined.
 Excited State  69:      Singlet-?Sym   19.9461 eV   62.16 nm  f=0.0000  <S**2>=0.000
       4 -> 16         0.70640

 Excited state symmetry could not be determined.
 Excited State  70:      Singlet-?Sym   19.9461 eV   62.16 nm  f=0.0000  <S**2>=0.000
       4 -> 17         0.70640

 Excited state symmetry could not be determined.
 Excited State  71:      Singlet-?Sym   20.5557 eV   60.32 nm  f=0.0045  <S**2>=0.000
       4 -> 18         0.63040
       4 -> 19         0.30342

 Excited state symmetry could not be determined.
 Excited State  72:      Singlet-?Sym   20.5557 eV   60.32 nm  f=0.0045  <S**2>=0.000
       4 -> 18        -0.30342
       4 -> 19         0.63040

 Excited State  73:      Singlet-SGG   20.9397 eV   59.21 nm  f=0.0000  <S**2>=0.000
       3 -> 12        -0.45754
       5 -> 21         0.52493

 Excited State  74:      Singlet-SGU   20.9660 eV   59.14 nm  f=0.2467  <S**2>=0.000
       5 -> 20         0.69629

 Excited State  75:      Singlet-SGG   21.2097 eV   58.46 nm  f=0.0000  <S**2>=0.000
       3 -> 12         0.52367
       5 -> 21         0.45966

 Excited state symmetry could not be determined.
 Excited State  76:      Singlet-?Sym   21.8812 eV   56.66 nm  f=0.0000  <S**2>=0.000
       5 -> 23         0.70701

 Excited state symmetry could not be determined.
 Excited State  77:      Singlet-?Sym   21.8812 eV   56.66 nm  f=0.0000  <S**2>=0.000
       5 -> 24         0.70701

 Excited State  78:      Singlet-SGG   22.0001 eV   56.36 nm  f=0.0000  <S**2>=0.000
       4 -> 20        -0.31673
       5 -> 22         0.61141

 Excited State  79:      Singlet-SGU   22.5947 eV   54.87 nm  f=0.0310  <S**2>=0.000
       3 -> 13         0.56690
       4 -> 21         0.39823
       4 -> 22         0.10673

 Excited State  80:      Singlet-SGU   22.7029 eV   54.61 nm  f=0.0030  <S**2>=0.000
       3 -> 13        -0.34457
       4 -> 21         0.51234
       4 -> 22        -0.17317
       5 -> 27         0.28630

 Excited state symmetry could not be determined.
 Excited State  81:      Singlet-?Sym   22.7269 eV   54.55 nm  f=0.1544  <S**2>=0.000
       3 -> 14         0.22340
       5 -> 25         0.64342
       5 -> 26         0.16710

 Excited state symmetry could not be determined.
 Excited State  82:      Singlet-?Sym   22.7269 eV   54.55 nm  f=0.1544  <S**2>=0.000
       3 -> 15         0.22340
       5 -> 25        -0.16710
       5 -> 26         0.64342

 Excited state symmetry could not be determined.
 Excited State  83:      Singlet-?Sym   22.9373 eV   54.05 nm  f=0.0051  <S**2>=0.000
       3 -> 14         0.48200
       3 -> 15        -0.45636
       5 -> 25        -0.16008
       5 -> 26         0.15157

 Excited state symmetry could not be determined.
 Excited State  84:      Singlet-?Sym   22.9373 eV   54.05 nm  f=0.0051  <S**2>=0.000
       3 -> 14         0.45636
       3 -> 15         0.48200
       5 -> 25        -0.15157
       5 -> 26        -0.16008

 Excited State  85:      Singlet-SGG   23.0991 eV   53.67 nm  f=0.0000  <S**2>=0.000
       4 -> 20         0.60938
       5 -> 22         0.26809
       6 -> 33        -0.11883
       7 -> 32        -0.11883

 Excited state symmetry could not be determined.
 Excited State  86:      Singlet-?Sym   23.4928 eV   52.78 nm  f=0.0000  <S**2>=0.000
       5 -> 28         0.70493

 Excited state symmetry could not be determined.
 Excited State  87:      Singlet-?Sym   23.4928 eV   52.78 nm  f=0.0000  <S**2>=0.000
       5 -> 29         0.70493

 Excited state symmetry could not be determined.
 Excited State  88:      Singlet-?Sym   23.6389 eV   52.45 nm  f=0.0000  <S**2>=0.000
       4 -> 23         0.70583

 Excited state symmetry could not be determined.
 Excited State  89:      Singlet-?Sym   23.6389 eV   52.45 nm  f=0.0000  <S**2>=0.000
       4 -> 24         0.70583

 Excited State  90:      Singlet-SGU   23.7210 eV   52.27 nm  f=0.2623  <S**2>=0.000
       3 -> 13        -0.11370
       4 -> 22         0.62544
       5 -> 27         0.27754

 Excited state symmetry could not be determined.
 Excited State  91:      Singlet-?Sym   24.1334 eV   51.37 nm  f=0.0000  <S**2>=0.000
       3 -> 19         0.10460
       4 -> 25        -0.12930
       7 -> 30         0.68631

 Excited state symmetry could not be determined.
 Excited State  92:      Singlet-?Sym   24.1334 eV   51.37 nm  f=0.0000  <S**2>=0.000
       3 -> 18         0.10460
       4 -> 26        -0.12930
       6 -> 30         0.68631

 Excited State  93:      Singlet-SGU   24.4025 eV   50.81 nm  f=0.0350  <S**2>=0.000
       3 -> 13         0.13736
       3 -> 20         0.13846
       4 -> 21        -0.24774
       4 -> 22        -0.22290
       5 -> 27         0.54387

 Excited state symmetry could not be determined.
 Excited State  94:      Singlet-?Sym   24.4725 eV   50.66 nm  f=0.0000  <S**2>=0.000
       3 -> 18        -0.11823
       3 -> 19         0.19987
       4 -> 25         0.56679
       4 -> 26        -0.33521

 Excited state symmetry could not be determined.
 Excited State  95:      Singlet-?Sym   24.4725 eV   50.66 nm  f=0.0000  <S**2>=0.000
       3 -> 18         0.19987
       3 -> 19         0.11823
       4 -> 25         0.33521
       4 -> 26         0.56679

 Excited state symmetry could not be determined.
 Excited State  96:      Singlet-?Sym   24.5518 eV   50.50 nm  f=0.0000  <S**2>=0.000
       3 -> 16         0.70555

 Excited state symmetry could not be determined.
 Excited State  97:      Singlet-?Sym   24.5518 eV   50.50 nm  f=0.0000  <S**2>=0.000
       3 -> 17         0.70555

 Excited state symmetry could not be determined.
 Excited State  98:      Singlet-?Sym   25.1294 eV   49.34 nm  f=0.0159  <S**2>=0.000
       4 -> 28        -0.37361
       7 -> 31         0.59867

 Excited state symmetry could not be determined.
 Excited State  99:      Singlet-?Sym   25.1294 eV   49.34 nm  f=0.0159  <S**2>=0.000
       4 -> 29        -0.37361
       6 -> 31         0.59867

 Excited state symmetry could not be determined.
 Excited State 100:      Singlet-?Sym   25.3393 eV   48.93 nm  f=0.0000  <S**2>=0.000
       3 -> 18         0.48048
       3 -> 19         0.44735
       4 -> 25        -0.13975
       4 -> 26        -0.15012

 Excited state symmetry could not be determined.
 Excited State 101:      Singlet-?Sym   25.3393 eV   48.93 nm  f=0.0000  <S**2>=0.000
       3 -> 18        -0.44735
       3 -> 19         0.48048
       4 -> 25        -0.15012
       4 -> 26         0.13975

 Excited state symmetry could not be determined.
 Excited State 102:      Singlet-?Sym   25.3509 eV   48.91 nm  f=0.0052  <S**2>=0.000
       4 -> 28         0.59823
       7 -> 31         0.36786

 Excited state symmetry could not be determined.
 Excited State 103:      Singlet-?Sym   25.3509 eV   48.91 nm  f=0.0052  <S**2>=0.000
       4 -> 29         0.59823
       6 -> 31         0.36786

 Excited State 104:      Singlet-SGG   25.4022 eV   48.81 nm  f=0.0000  <S**2>=0.000
       4 -> 27         0.69118

 Excited state symmetry could not be determined.
 Excited State 105:      Singlet-?Sym   26.3196 eV   47.11 nm  f=0.0000  <S**2>=0.000
       6 -> 33        -0.49965
       7 -> 32         0.49965

 Excited state symmetry could not be determined.
 Excited State 106:      Singlet-?Sym   26.3196 eV   47.11 nm  f=0.0000  <S**2>=0.000
       6 -> 32         0.49965
       7 -> 33         0.49965

 Excited state symmetry could not be determined.
 Excited State 107:      Singlet-?Sym   26.5372 eV   46.72 nm  f=0.0000  <S**2>=0.000
       6 -> 32         0.50000
       7 -> 33        -0.50000

 Excited State 108:      Singlet-SGG   27.0264 eV   45.88 nm  f=0.0000  <S**2>=0.000
       3 -> 21         0.63570
       6 -> 33        -0.21043
       7 -> 32        -0.21043

 Excited State 109:      Singlet-SGU   27.3659 eV   45.31 nm  f=0.0030  <S**2>=0.000
       3 -> 20         0.67909

 Excited State 110:      Singlet-SGG   28.0155 eV   44.26 nm  f=0.0000  <S**2>=0.000
       3 -> 22         0.68994

 Excited state symmetry could not be determined.
 Excited State 111:      Singlet-?Sym   28.1483 eV   44.05 nm  f=0.0000  <S**2>=0.000
       3 -> 23         0.70699

 Excited state symmetry could not be determined.
 Excited State 112:      Singlet-?Sym   28.1483 eV   44.05 nm  f=0.0000  <S**2>=0.000
       3 -> 24         0.70699

 Excited state symmetry could not be determined.

 The electronic state is 1-SGG.
 Alpha  occ. eigenvalues --   -9.90702  -9.90467  -0.67489  -0.50990  -0.44570
 Alpha  occ. eigenvalues --   -0.26362  -0.26362
 Alpha virt. eigenvalues --   -0.00609  -0.00609   0.03076   0.03564   0.08665
 Alpha virt. eigenvalues --    0.14537   0.15774   0.15774   0.22362   0.22362
 Alpha virt. eigenvalues --    0.24184   0.24184   0.31766   0.31922   0.34828

 Mulliken charges:
               1
     1  C    0.227337
     2  C    0.227337
     3  H   -0.227337
     4  H   -0.227337
 Sum of Mulliken charges =   0.00000

 Dipole moment (field-independent basis, Debye):
    X=             -0.0000    Y=              0.0000    Z=              0.0000  Tot=              0.0000
 Quadrupole moment (field-independent basis, Debye-Ang):
   XX=            -13.4233   YY=            -13.4233   ZZ=             -7.4240
   XY=             -0.0000   XZ=              0.0000   YZ=              0.0000

 Normal termination of Gaussian 16 at Mon Mar 21 04:14:09 2022.
