 Gaussian 16, Revision C.01,
 Gaussian 16:  EM64L-G16RevC.01  3-Jul-2019

 ----------------------------------------------------------------------
 #P TD(Nstates=10000) pbepbe/Gen SCF(maxcycles=100) Int(Grid=ultrafine)
 ----------------------------------------------------------------------

 ---------------------
 xGDB7_00001_tier4.com
 ---------------------
 Symbolic Z-matrix:
 Charge =  0 Multiplicity = 1

                         Standard orientation:
 ---------------------------------------------------------------------
 Center     Atomic      Atomic             Coordinates (Angstroms)
 Number     Number       Type             X           Y           Z
 ---------------------------------------------------------------------
      1          6           0        0.000000    0.865978    0.000000
      2          6           0        0.749967   -0.432983    0.000000
      3          6           0       -0.749954   -0.432999    0.000000
      4          1           0       -0.000033    1.451806   -0.909176
      5          1           0       -0.000033    1.451806    0.909176
      6          1           0        1.257295   -0.725894    0.909177
      7          1           0        1.257295   -0.725894   -0.909177
      8          1           0       -1.257302   -0.725899    0.909179
      9          1           0       -1.257302   -0.725899   -0.909179
 ---------------------------------------------------------------------

 SCF Done:  E(RPBE-PBE) =  -117.646733498     A.U. after   10 cycles

 Excitation energies and oscillator strengths:

 Excited State   1:      Singlet-A'     7.5642 eV  163.91 nm  f=0.0022  <S**2>=0.000
      12 -> 13         0.70517
 This state for optimization and/or second-order correction.
 Total Energy, E(TD-HF/TD-DFT) =  -117.368752623
 Copying the excited state density for this state as the 1-particle RhoCI density.

 Excited State   2:      Singlet-A'     7.5644 eV  163.90 nm  f=0.0022  <S**2>=0.000
      11 -> 13         0.70517

 Excited State   3:      Singlet-A'     8.1925 eV  151.34 nm  f=0.0000  <S**2>=0.000
      11 -> 14         0.45691
      11 -> 15        -0.20132
      12 -> 14         0.20200
      12 -> 15         0.45773

 Excited State   4:      Singlet-A'     8.1957 eV  151.28 nm  f=0.0000  <S**2>=0.000
      11 -> 14        -0.20145
      11 -> 15        -0.45635
      12 -> 14         0.45804
      12 -> 15        -0.20176

 Excited State   5:      Singlet-A'     8.2562 eV  150.17 nm  f=0.0793  <S**2>=0.000
      11 -> 14         0.22739
      11 -> 15         0.44311
      12 -> 14         0.44151
      12 -> 15        -0.22694

 Excited State   6:      Singlet-A'     8.2562 eV  150.17 nm  f=0.0793  <S**2>=0.000
      11 -> 14         0.44268
      11 -> 15        -0.22761
      12 -> 14        -0.22673
      12 -> 15        -0.44193

 Excited State   7:      Singlet-A"     8.3939 eV  147.71 nm  f=0.0000  <S**2>=0.000
      12 -> 16         0.70601

 Excited State   8:      Singlet-A"     8.3941 eV  147.70 nm  f=0.0000  <S**2>=0.000
      11 -> 16         0.70601

 Excited State   9:      Singlet-A"     9.0992 eV  136.26 nm  f=0.0000  <S**2>=0.000
      10 -> 13         0.70582

 Excited State  10:      Singlet-A"     9.0993 eV  136.26 nm  f=0.0000  <S**2>=0.000
       9 -> 13         0.70582

 Excited State  11:      Singlet-A'     9.6633 eV  128.30 nm  f=0.0013  <S**2>=0.000
      12 -> 17         0.70289

 Excited State  12:      Singlet-A'     9.6635 eV  128.30 nm  f=0.0013  <S**2>=0.000
      11 -> 17         0.70289

 Excited State  13:      Singlet-A"     9.7097 eV  127.69 nm  f=0.0000  <S**2>=0.000
       9 -> 14         0.13851
       9 -> 15         0.47919
      10 -> 14         0.48131
      10 -> 15        -0.13867

 Excited State  14:      Singlet-A"     9.7418 eV  127.27 nm  f=0.0000  <S**2>=0.000
       9 -> 14         0.49913
      10 -> 15         0.49929

 Excited State  15:      Singlet-A"     9.7418 eV  127.27 nm  f=0.0000  <S**2>=0.000
       9 -> 15         0.50020
      10 -> 14        -0.49821

 Excited State  16:      Singlet-A"     9.8307 eV  126.12 nm  f=0.1450  <S**2>=0.000
       9 -> 14         0.47958
       9 -> 15        -0.13848
      10 -> 14        -0.13826
      10 -> 15        -0.47938

 Excited State  17:      Singlet-A'    10.0934 eV  122.84 nm  f=0.1213  <S**2>=0.000
      10 -> 16         0.69772

 Excited State  18:      Singlet-A'    10.0934 eV  122.84 nm  f=0.1213  <S**2>=0.000
       9 -> 16         0.69772

 Excited State  19:      Singlet-A"    10.5907 eV  117.07 nm  f=0.0178  <S**2>=0.000
      11 -> 20         0.49638
      12 -> 19         0.50274

 Excited State  20:      Singlet-A"    10.5916 eV  117.06 nm  f=0.0000  <S**2>=0.000
      11 -> 19        -0.49766
      12 -> 20         0.50156

 Excited State  21:      Singlet-A'    10.6024 eV  116.94 nm  f=0.1774  <S**2>=0.000
      12 -> 18         0.66573

 Excited State  22:      Singlet-A'    10.6025 eV  116.94 nm  f=0.1774  <S**2>=0.000
      11 -> 18         0.66572

 Excited State  23:      Singlet-A"    10.6073 eV  116.89 nm  f=0.0000  <S**2>=0.000
      11 -> 19         0.45618
      11 -> 20        -0.20725
      12 -> 19         0.20464
      12 -> 20         0.45262

 Excited State  24:      Singlet-A"    10.6073 eV  116.89 nm  f=0.0000  <S**2>=0.000
      11 -> 19         0.20674
      11 -> 20         0.45730
      12 -> 19        -0.45149
      12 -> 20         0.20515

 Excited State  25:      Singlet-A'    11.2386 eV  110.32 nm  f=0.0000  <S**2>=0.000
      11 -> 21         0.13499
      11 -> 22        -0.47860
      12 -> 21         0.48339
      12 -> 22         0.13546

 Excited State  26:      Singlet-A"    11.2482 eV  110.23 nm  f=0.0000  <S**2>=0.000
      10 -> 17         0.70024

 Excited State  27:      Singlet-A"    11.2483 eV  110.22 nm  f=0.0000  <S**2>=0.000
       9 -> 17         0.70023

 Excited State  28:      Singlet-A'    11.2609 eV  110.10 nm  f=0.0126  <S**2>=0.000
      11 -> 21        -0.49639
      12 -> 22         0.49642

 Excited State  29:      Singlet-A'    11.2610 eV  110.10 nm  f=0.0126  <S**2>=0.000
      11 -> 22         0.49871
      12 -> 21         0.49409

 Excited State  30:      Singlet-A"    11.4553 eV  108.23 nm  f=0.0000  <S**2>=0.000
      10 -> 18         0.70396

 Excited State  31:      Singlet-A"    11.4554 eV  108.23 nm  f=0.0000  <S**2>=0.000
       9 -> 18         0.70396

 Excited State  32:      Singlet-A'    11.5639 eV  107.22 nm  f=0.0000  <S**2>=0.000
       8 -> 13        -0.16886
       9 -> 19         0.16247
      10 -> 20         0.16248
      11 -> 21         0.43280
      11 -> 22         0.12171
      12 -> 21        -0.12161
      12 -> 22         0.43265

 Excited State  33:      Singlet-A'    11.8458 eV  104.67 nm  f=0.0000  <S**2>=0.000
      11 -> 23         0.47620
      11 -> 24        -0.14754
      12 -> 23         0.14796
      12 -> 24         0.47691

 Excited State  34:      Singlet-A'    11.8463 eV  104.66 nm  f=0.0000  <S**2>=0.000
       8 -> 13         0.20897
      11 -> 23        -0.13777
      11 -> 24        -0.44414
      12 -> 23         0.44534
      12 -> 24        -0.13800

 Excited State  35:      Singlet-A'    11.9235 eV  103.98 nm  f=0.0270  <S**2>=0.000
      11 -> 23         0.35775
      11 -> 24         0.32984
      12 -> 23         0.32918
      12 -> 24        -0.35729

 Excited State  36:      Singlet-A'    11.9235 eV  103.98 nm  f=0.0270  <S**2>=0.000
      11 -> 23        -0.32980
      11 -> 24         0.35791
      12 -> 23         0.35713
      12 -> 24         0.32921

 Excited State  37:      Singlet-A'    11.9821 eV  103.47 nm  f=0.0000  <S**2>=0.000
       8 -> 13         0.60622
       9 -> 19         0.17950
      10 -> 20         0.17965
      11 -> 24         0.16926
      12 -> 23        -0.16871

 Excited State  38:      Singlet-A"    12.0068 eV  103.26 nm  f=0.0000  <S**2>=0.000
      12 -> 25         0.69628

 Excited State  39:      Singlet-A"    12.0070 eV  103.26 nm  f=0.0000  <S**2>=0.000
      11 -> 25         0.69628

 Excited State  40:      Singlet-A'    12.1445 eV  102.09 nm  f=0.0000  <S**2>=0.000
       9 -> 20        -0.49342
      10 -> 19         0.49394

 Excited State  41:      Singlet-A'    12.2604 eV  101.13 nm  f=0.0136  <S**2>=0.000
       9 -> 19         0.32994
       9 -> 20         0.34857
      10 -> 19         0.34817
      10 -> 20        -0.32985

 Excited State  42:      Singlet-A'    12.2604 eV  101.13 nm  f=0.0136  <S**2>=0.000
       9 -> 19        -0.34834
       9 -> 20         0.33007
      10 -> 19         0.32972
      10 -> 20         0.34839

 Excited State  43:      Singlet-A"    12.2818 eV  100.95 nm  f=0.0000  <S**2>=0.000
      11 -> 26        -0.27713
      11 -> 27         0.40859
      12 -> 26         0.41135
      12 -> 27         0.27735

 Excited State  44:      Singlet-A"    12.2818 eV  100.95 nm  f=0.0000  <S**2>=0.000
      11 -> 26        -0.40974
      11 -> 27        -0.27628
      12 -> 26        -0.27820
      12 -> 27         0.41021

 Excited State  45:      Singlet-A"    12.3102 eV  100.72 nm  f=0.0000  <S**2>=0.000
      11 -> 27         0.50109
      12 -> 26        -0.49774

 Excited State  46:      Singlet-A"    12.4010 eV   99.98 nm  f=0.0179  <S**2>=0.000
       7 -> 13        -0.12712
       8 -> 16        -0.18289
      11 -> 26         0.46611
      12 -> 27         0.46561

 Excited State  47:      Singlet-A'    12.5610 eV   98.71 nm  f=0.0640  <S**2>=0.000
       8 -> 14         0.65251
      12 -> 28        -0.21689

 Excited State  48:      Singlet-A'    12.5610 eV   98.71 nm  f=0.0640  <S**2>=0.000
       8 -> 15         0.65253
      11 -> 28         0.21682

 Excited State  49:      Singlet-A"    12.5940 eV   98.45 nm  f=0.0429  <S**2>=0.000
       7 -> 13         0.65010
       8 -> 16        -0.24649

 Excited State  50:      Singlet-A'    12.6888 eV   97.71 nm  f=0.0000  <S**2>=0.000
       7 -> 16         0.33153
       8 -> 13        -0.21273
       9 -> 19         0.37371
      10 -> 20         0.37369
      11 -> 21        -0.13708
      12 -> 22        -0.13707

 Excited State  51:      Singlet-A"    12.7286 eV   97.41 nm  f=0.0000  <S**2>=0.000
       9 -> 21        -0.45821
       9 -> 22        -0.19804
      10 -> 21        -0.19870
      10 -> 22         0.45860

 Excited State  52:      Singlet-A"    12.7344 eV   97.36 nm  f=0.0012  <S**2>=0.000
       8 -> 16        -0.32838
       9 -> 21        -0.17481
       9 -> 22         0.40326
      10 -> 21         0.40493
      10 -> 22         0.17493

 Excited State  53:      Singlet-A"    12.7699 eV   97.09 nm  f=0.0000  <S**2>=0.000
       9 -> 21         0.49750
      10 -> 22         0.49712

 Excited State  54:      Singlet-A"    12.7699 eV   97.09 nm  f=0.0000  <S**2>=0.000
       9 -> 22         0.49806
      10 -> 21        -0.49656

 Excited State  55:      Singlet-A'    12.8388 eV   96.57 nm  f=0.2430  <S**2>=0.000
       8 -> 14         0.21558
       9 -> 25        -0.12835
      12 -> 28         0.62670

 Excited State  56:      Singlet-A'    12.8389 eV   96.57 nm  f=0.2430  <S**2>=0.000
       8 -> 15        -0.21551
      10 -> 25        -0.12836
      11 -> 28         0.62673

 Excited State  57:      Singlet-A"    12.8539 eV   96.46 nm  f=0.1505  <S**2>=0.000
       7 -> 13         0.19897
       8 -> 16         0.51507
       9 -> 22         0.20105
       9 -> 23         0.18349
      10 -> 21         0.20074
      10 -> 24        -0.18347
      11 -> 26         0.11412
      12 -> 27         0.11397

 Excited State  58:      Singlet-A"    13.2356 eV   93.67 nm  f=0.0000  <S**2>=0.000
       7 -> 14         0.70567

 Excited State  59:      Singlet-A"    13.2356 eV   93.67 nm  f=0.0000  <S**2>=0.000
       7 -> 15         0.70567

 Excited State  60:      Singlet-A"    13.3990 eV   92.53 nm  f=0.0000  <S**2>=0.000
       9 -> 24         0.49256
      10 -> 23         0.49345

 Excited State  61:      Singlet-A"    13.4732 eV   92.02 nm  f=0.0000  <S**2>=0.000
       9 -> 23        -0.26109
       9 -> 24         0.41383
      10 -> 23        -0.41312
      10 -> 24        -0.26125

 Excited State  62:      Singlet-A"    13.4732 eV   92.02 nm  f=0.0000  <S**2>=0.000
       9 -> 23         0.41351
       9 -> 24         0.26142
      10 -> 23        -0.26092
      10 -> 24         0.41344

 Excited State  63:      Singlet-A'    13.7193 eV   90.37 nm  f=0.0103  <S**2>=0.000
       9 -> 26         0.24016
      10 -> 25         0.59185
      10 -> 27         0.24036

 Excited State  64:      Singlet-A'    13.7194 eV   90.37 nm  f=0.0103  <S**2>=0.000
       9 -> 25         0.59181
       9 -> 27        -0.24007
      10 -> 26         0.24053

 Excited State  65:      Singlet-A'    13.7742 eV   90.01 nm  f=0.0000  <S**2>=0.000
       7 -> 16         0.40592
       8 -> 17        -0.23498
       9 -> 27        -0.34279
      10 -> 26        -0.34255

 Excited State  66:      Singlet-A'    13.8212 eV   89.71 nm  f=0.0000  <S**2>=0.000
       8 -> 18         0.16272
       9 -> 26         0.48329
      10 -> 27        -0.48320

 Excited State  67:      Singlet-A"    13.9156 eV   89.10 nm  f=0.6307  <S**2>=0.000
       7 -> 13        -0.11676
       7 -> 17        -0.28217
       8 -> 16        -0.14348
       9 -> 23         0.41016
      10 -> 24        -0.41013
      11 -> 26        -0.10056
      12 -> 27        -0.10052

 Excited State  68:      Singlet-A'    13.9407 eV   88.94 nm  f=0.0000  <S**2>=0.000
       7 -> 16        -0.24268
       8 -> 17         0.44306
       9 -> 27        -0.33138
      10 -> 26        -0.33128

 Excited State  69:      Singlet-A'    14.1325 eV   87.73 nm  f=0.4615  <S**2>=0.000
       9 -> 25         0.27598
       9 -> 27         0.40873
      10 -> 26        -0.40869
      11 -> 30         0.10890
      12 -> 28         0.13050
      12 -> 29        -0.10894

 Excited State  70:      Singlet-A'    14.1325 eV   87.73 nm  f=0.4615  <S**2>=0.000
       9 -> 26         0.40874
      10 -> 25        -0.27592
      10 -> 27         0.40871
      11 -> 28        -0.13051
      11 -> 29        -0.10891
      12 -> 30        -0.10894

 Excited State  71:      Singlet-A"    14.2398 eV   87.07 nm  f=0.0000  <S**2>=0.000
      10 -> 28         0.69148

 Excited State  72:      Singlet-A"    14.2399 eV   87.07 nm  f=0.0000  <S**2>=0.000
       9 -> 28         0.69149

 Excited State  73:      Singlet-A'    14.2627 eV   86.93 nm  f=0.0000  <S**2>=0.000
       5 -> 14        -0.13157
       6 -> 15         0.13157
       7 -> 16         0.35077
       8 -> 17         0.48873
       9 -> 19        -0.10825
       9 -> 27         0.12946
      10 -> 20        -0.10824
      10 -> 26         0.12949

 Excited State  74:      Singlet-A'    14.3573 eV   86.36 nm  f=0.0000  <S**2>=0.000
       8 -> 18         0.64876
       9 -> 26        -0.10393
      10 -> 27         0.10392
      11 -> 30        -0.12917
      12 -> 29        -0.12918

 Excited State  75:      Singlet-A'    14.6244 eV   84.78 nm  f=0.0000  <S**2>=0.000
       8 -> 18         0.21470
      11 -> 29         0.28499
      11 -> 30         0.37529
      12 -> 29         0.37544
      12 -> 30        -0.28509

 Excited State  76:      Singlet-A'    14.6488 eV   84.64 nm  f=0.0000  <S**2>=0.000
      11 -> 29        -0.38787
      11 -> 30         0.29452
      12 -> 29         0.29467
      12 -> 30         0.38802

 Excited State  77:      Singlet-A'    14.8421 eV   83.54 nm  f=0.3173  <S**2>=0.000
       6 -> 13         0.31552
      10 -> 25         0.13353
      11 -> 29        -0.30216
      11 -> 30        -0.26093
      11 -> 31        -0.10608
      12 -> 29         0.26080
      12 -> 30        -0.30205
      12 -> 32        -0.13996

 Excited State  78:      Singlet-A'    14.8421 eV   83.54 nm  f=0.3173  <S**2>=0.000
       5 -> 13         0.31539
       9 -> 25         0.13356
      11 -> 29         0.26092
      11 -> 30        -0.30222
      11 -> 32         0.13998
      12 -> 29         0.30206
      12 -> 30         0.26079
      12 -> 31        -0.10614

 Excited State  79:      Singlet-A"    14.8943 eV   83.24 nm  f=0.0000  <S**2>=0.000
       7 -> 18         0.70555

 Excited State  80:      Singlet-A"    14.9522 eV   82.92 nm  f=0.0000  <S**2>=0.000
       8 -> 19         0.70594

 Excited State  81:      Singlet-A"    14.9523 eV   82.92 nm  f=0.0000  <S**2>=0.000
       8 -> 20         0.70594

 Excited State  82:      Singlet-A'    14.9706 eV   82.82 nm  f=0.0195  <S**2>=0.000
       6 -> 13         0.59344
      11 -> 29         0.13161
      11 -> 31         0.15990
      12 -> 30         0.13156
      12 -> 32         0.21394

 Excited State  83:      Singlet-A'    14.9707 eV   82.82 nm  f=0.0195  <S**2>=0.000
       5 -> 13         0.59352
      11 -> 30         0.13153
      11 -> 32        -0.21384
      12 -> 29        -0.13145
      12 -> 31         0.15998

 Excited State  84:      Singlet-A"    15.0154 eV   82.57 nm  f=0.5131  <S**2>=0.000
       7 -> 17         0.63470
       8 -> 25         0.11880
       9 -> 23         0.14502
      10 -> 24        -0.14501

 Excited State  85:      Singlet-A'    15.2444 eV   81.33 nm  f=0.0267  <S**2>=0.000
      11 -> 32         0.12221
      12 -> 31         0.67214

 Excited State  86:      Singlet-A'    15.2446 eV   81.33 nm  f=0.0267  <S**2>=0.000
      11 -> 31         0.67215
      12 -> 32        -0.12226

 Excited State  87:      Singlet-A'    15.4789 eV   80.10 nm  f=0.0032  <S**2>=0.000
       5 -> 15         0.32842
       6 -> 14        -0.32903
       7 -> 20        -0.10192
       8 -> 21         0.20917
      12 -> 32         0.45939

 Excited State  88:      Singlet-A'    15.4790 eV   80.10 nm  f=0.0032  <S**2>=0.000
       5 -> 14        -0.32885
       6 -> 15        -0.32893
       7 -> 19         0.10180
       8 -> 22        -0.20895
      11 -> 32         0.45929

 Excited State  89:      Singlet-A'    15.5442 eV   79.76 nm  f=0.0000  <S**2>=0.000
       5 -> 14         0.18622
       5 -> 15         0.45892
       6 -> 14         0.46154
       6 -> 15        -0.18624

 Excited State  90:      Singlet-A'    15.5529 eV   79.72 nm  f=0.0003  <S**2>=0.000
       5 -> 15        -0.31404
       6 -> 14         0.30985
       7 -> 20        -0.28455
       8 -> 21         0.39148
      12 -> 32         0.19799

 Excited State  91:      Singlet-A'    15.5529 eV   79.72 nm  f=0.0003  <S**2>=0.000
       5 -> 14        -0.31203
       6 -> 15        -0.31151
       7 -> 19        -0.28477
       8 -> 22         0.39146
      11 -> 32        -0.19826

 Excited State  92:      Singlet-A'    15.6483 eV   79.23 nm  f=0.1090  <S**2>=0.000
       7 -> 19         0.45710
       7 -> 20        -0.29175
       8 -> 21        -0.31914
       8 -> 22         0.29597

 Excited State  93:      Singlet-A'    15.6484 eV   79.23 nm  f=0.1090  <S**2>=0.000
       7 -> 19         0.29168
       7 -> 20         0.45713
       8 -> 21         0.29590
       8 -> 22         0.31923

 Excited State  94:      Singlet-A"    15.6852 eV   79.05 nm  f=0.0000  <S**2>=0.000
      12 -> 33         0.70047

 Excited State  95:      Singlet-A"    15.6853 eV   79.04 nm  f=0.0000  <S**2>=0.000
      11 -> 33         0.70045

 Excited State  96:      Singlet-A"    15.7349 eV   78.80 nm  f=0.0000  <S**2>=0.000
       6 -> 16         0.66513
       9 -> 30         0.12507
      10 -> 29         0.12511

 Excited State  97:      Singlet-A"    15.7350 eV   78.80 nm  f=0.0000  <S**2>=0.000
       5 -> 16         0.66508
       9 -> 29        -0.12509
      10 -> 30         0.12512

 Excited State  98:      Singlet-A"    15.7677 eV   78.63 nm  f=0.0000  <S**2>=0.000
      12 -> 34         0.70229

 Excited State  99:      Singlet-A"    15.7679 eV   78.63 nm  f=0.0000  <S**2>=0.000
      11 -> 34         0.70230

 Excited State 100:      Singlet-A'    16.0379 eV   77.31 nm  f=0.0000  <S**2>=0.000
       5 -> 14         0.41344
       5 -> 15        -0.16731
       6 -> 14        -0.16729
       6 -> 15        -0.41342
       7 -> 16         0.12501
       8 -> 28        -0.12995

 Excited State 101:      Singlet-A"    16.0488 eV   77.25 nm  f=0.0000  <S**2>=0.000
       9 -> 29         0.35330
       9 -> 30        -0.35212
      10 -> 29         0.35236
      10 -> 30         0.35341

 Excited State 102:      Singlet-A'    16.1384 eV   76.83 nm  f=0.0006  <S**2>=0.000
       7 -> 19        -0.24644
       8 -> 22         0.18733
       8 -> 23         0.43746
       8 -> 24        -0.29012
      11 -> 32         0.23174

 Excited State 103:      Singlet-A'    16.1384 eV   76.83 nm  f=0.0006  <S**2>=0.000
       7 -> 20         0.24648
       8 -> 21        -0.18732
       8 -> 23         0.29016
       8 -> 24         0.43741
      12 -> 32         0.23172

 Excited State 104:      Singlet-A"    16.1714 eV   76.67 nm  f=0.0000  <S**2>=0.000
       5 -> 16        -0.17376
       7 -> 22        -0.14243
       9 -> 29        -0.45131
      10 -> 30         0.45142

 Excited State 105:      Singlet-A"    16.1714 eV   76.67 nm  f=0.0000  <S**2>=0.000
       6 -> 16        -0.17373
       7 -> 21        -0.14250
       9 -> 30         0.45137
      10 -> 29         0.45134

 Excited State 106:      Singlet-A"    16.2517 eV   76.29 nm  f=0.0000  <S**2>=0.000
       7 -> 21         0.69006

 Excited State 107:      Singlet-A"    16.2517 eV   76.29 nm  f=0.0000  <S**2>=0.000
       7 -> 22         0.69007

 Excited State 108:      Singlet-A"    16.2687 eV   76.21 nm  f=0.0264  <S**2>=0.000
       8 -> 25        -0.15944
       9 -> 29         0.33932
       9 -> 30         0.34044
      10 -> 29        -0.34012
      10 -> 30         0.33909

 Excited State 109:      Singlet-A'    16.4618 eV   75.32 nm  f=0.0646  <S**2>=0.000
       7 -> 20        -0.13106
       8 -> 21         0.18913
       8 -> 23         0.34189
       8 -> 24         0.27865
      11 -> 32        -0.13008
      11 -> 37         0.20591
      12 -> 32        -0.19573
      12 -> 38         0.20594

 Excited State 110:      Singlet-A'    16.4618 eV   75.32 nm  f=0.0646  <S**2>=0.000
       7 -> 19        -0.13105
       8 -> 22         0.18913
       8 -> 23        -0.27861
       8 -> 24         0.34194
      11 -> 32         0.19577
      11 -> 38         0.20590
      12 -> 32        -0.13003
      12 -> 37        -0.20595

 Excited State 111:      Singlet-A"    16.5213 eV   75.05 nm  f=0.0931  <S**2>=0.000
       8 -> 25         0.65894

 Excited State 112:      Singlet-A"    16.6659 eV   74.39 nm  f=0.0000  <S**2>=0.000
       8 -> 26         0.68553
       9 -> 32         0.10892
      10 -> 31         0.11087

 Excited State 113:      Singlet-A"    16.6659 eV   74.39 nm  f=0.0000  <S**2>=0.000
       8 -> 27         0.68553
       9 -> 31         0.11079
      10 -> 32        -0.10897

 Excited State 114:      Singlet-A"    16.7389 eV   74.07 nm  f=0.0000  <S**2>=0.000
       7 -> 24         0.29278

 The electronic state is 1-A'.
 Alpha  occ. eigenvalues --   -9.89607  -9.89595  -9.89595  -0.77538  -0.53071
 Alpha  occ. eigenvalues --   -0.53071  -0.44565  -0.42068  -0.31809  -0.31808
 Alpha  occ. eigenvalues --   -0.26118  -0.26117
 Alpha virt. eigenvalues --    0.01489   0.03874   0.03874   0.04496   0.09357
 Alpha virt. eigenvalues --    0.09798   0.12830   0.12830   0.15116   0.15116
 Alpha virt. eigenvalues --    0.17448   0.17448   0.17800   0.19136   0.19136

 Mulliken charges:
               1
     1  C    0.496866
     2  C    0.496969
     3  C    0.496869
     4  H   -0.248442
     5  H   -0.248442
     6  H   -0.248459
     7  H   -0.248459
     8  H   -0.248451
     9  H   -0.248451
 Sum of Mulliken charges =  -0.00000

 Dipole moment (field-independent basis, Debye):
    X=             -0.0000    Y=              0.0000    Z=              0.0000  Tot=              0.0000
 Quadrupole moment (field-independent basis, Debye-Ang):
   XX=            -20.8684   YY=            -20.8684   ZZ=            -18.6653
   XY=             -0.0001   XZ=             -0.0000   YZ=             -0.0000

 Normal termination of Gaussian 16 at Mon Mar 21 20:10:54 2022.
