 Gaussian 16, Revision C.01,
 Gaussian 16:  EM64L-G16RevC.01  3-Jul-2019

 ----------------------------------------------------------------------
 #P TD(Nstates=10000) pbepbe/Gen SCF(maxcycles=100) Int(Grid=ultrafine)
 ----------------------------------------------------------------------

 ---------------------
 xGDB7_00001_tier4.com
 ---------------------
 Symbolic Z-matrix:
 Charge =  0 Multiplicity = 1

                         Standard orientation:
 ---------------------------------------------------------------------
 Center     Atomic      Atomic             Coordinates (Angstroms)
 Number     Number       Type             X           Y           Z
 ---------------------------------------------------------------------
      1          6           0        0.000000    0.000000    0.660866
      2          6           0        0.000000    0.000000   -0.660866
      3          1           0        0.000000    0.922586    1.229258
      4          1           0       -0.000000   -0.922586    1.229258
      5          1           0        0.000000    0.922586   -1.229258
      6          1           0       -0.000000   -0.922586   -1.229258
 ---------------------------------------------------------------------

 SCF Done:  E(RPBE-PBE) =  -78.4157304125     A.U. after    9 cycles

 Excitation energies and oscillator strengths:

 Excited State   1:      Singlet-B3U    7.3900 eV  167.77 nm  f=0.0615  <S**2>=0.000
       8 -> 10         0.70700
 This state for optimization and/or second-order correction.
 Total Energy, E(TD-HF/TD-DFT) =  -78.1441545030
 Copying the excited state density for this state as the 1-particle RhoCI density.

 Excited State   2:      Singlet-B1G    7.7479 eV  160.02 nm  f=0.0000  <S**2>=0.000
       7 ->  9         0.70387

 Excited State   3:      Singlet-B1U    7.9114 eV  156.71 nm  f=0.3327  <S**2>=0.000
       8 ->  9         0.69440
       8 -> 20        -0.11260
       8 <-  9        -0.10374

 Excited State   4:      Singlet-B2G    8.0030 eV  154.92 nm  f=0.0000  <S**2>=0.000
       8 -> 11         0.70616

 Excited State   5:      Singlet-B1G    8.7527 eV  141.65 nm  f=0.0000  <S**2>=0.000
       8 -> 12         0.70394

 Excited State   6:      Singlet-B3G    9.0784 eV  136.57 nm  f=0.0000  <S**2>=0.000
       7 -> 10         0.70670

 Excited State   7:      Singlet-B2G    9.4838 eV  130.73 nm  f=0.0000  <S**2>=0.000
       6 ->  9         0.70494

 Excited State   8:      Singlet-B2U    9.7107 eV  127.68 nm  f=0.0900  <S**2>=0.000
       7 -> 11         0.70598

 Excited State   9:      Singlet-B3U    9.8985 eV  125.26 nm  f=0.0481  <S**2>=0.000
       8 -> 13         0.70011

 Excited State  10:      Singlet-AU    10.3640 eV  119.63 nm  f=0.0000  <S**2>=0.000
       5 ->  9        -0.10762
       8 -> 14         0.69879

 Excited State  11:      Singlet-B1U   10.6432 eV  116.49 nm  f=0.1660  <S**2>=0.000
       6 -> 11        -0.10983
       7 -> 12         0.69314

 Excited State  12:      Singlet-AU    10.7560 eV  115.27 nm  f=0.0000  <S**2>=0.000
       5 ->  9         0.69867
       8 -> 14         0.10750

 Excited State  13:      Singlet-AG    10.9147 eV  113.59 nm  f=0.0000  <S**2>=0.000
       6 -> 10         0.67464
       8 -> 16         0.20162

 Excited State  14:      Singlet-B3U   10.9359 eV  113.37 nm  f=0.1689  <S**2>=0.000
       4 ->  9         0.10989
       8 -> 15         0.69245

 Excited State  15:      Singlet-AG    11.3534 eV  109.20 nm  f=0.0000  <S**2>=0.000
       6 -> 10        -0.17153
       7 -> 14        -0.23101
       8 -> 16         0.63450

 Excited State  16:      Singlet-B2U   11.3635 eV  109.11 nm  f=0.0759  <S**2>=0.000
       6 -> 12        -0.12990
       8 -> 17         0.68690

 Excited State  17:      Singlet-B1U   11.4805 eV  108.00 nm  f=0.2571  <S**2>=0.000
       6 -> 11         0.69684
       7 -> 12         0.10352

 Excited State  18:      Singlet-B2G   11.5913 eV  106.96 nm  f=0.0000  <S**2>=0.000
       8 -> 18         0.70437

 Excited State  19:      Singlet-B3G   11.6580 eV  106.35 nm  f=0.0000  <S**2>=0.000
       7 -> 13         0.69793

 Excited State  20:      Singlet-B1G   11.9934 eV  103.38 nm  f=0.0000  <S**2>=0.000
       8 -> 19         0.70695

 Excited State  21:      Singlet-B2U   12.1318 eV  102.20 nm  f=0.0496  <S**2>=0.000
       5 -> 10         0.64558
       6 -> 12        -0.28491

 Excited State  22:      Singlet-AG    12.3484 eV  100.41 nm  f=0.0000  <S**2>=0.000
       5 -> 12         0.20340
       7 -> 14         0.63939
       8 -> 16         0.16507

 Excited State  23:      Singlet-B2U   12.3551 eV  100.35 nm  f=0.2132  <S**2>=0.000
       5 -> 10         0.26385
       6 -> 12         0.61643
       7 -> 18         0.17469
       8 -> 17         0.11373

 Excited State  24:      Singlet-B3G   12.4846 eV   99.31 nm  f=0.0000  <S**2>=0.000
       7 -> 15         0.69532

 Excited State  25:      Singlet-AU    12.6719 eV   97.84 nm  f=0.0000  <S**2>=0.000
       7 -> 16         0.70695

 Excited State  26:      Singlet-B3G   12.7247 eV   97.44 nm  f=0.0000  <S**2>=0.000
       5 -> 11         0.70336

 Excited State  27:      Singlet-B2G   12.9839 eV   95.49 nm  f=0.0000  <S**2>=0.000
       7 -> 17         0.69020
       8 -> 21        -0.14352

 Excited State  28:      Singlet-AG    13.3328 eV   92.99 nm  f=0.0000  <S**2>=0.000
       5 -> 12         0.12303
       6 -> 13         0.69505

 Excited State  29:      Singlet-B2G   13.4707 eV   92.04 nm  f=0.0000  <S**2>=0.000
       7 -> 17         0.13808
       8 -> 21         0.68811

 Excited State  30:      Singlet-B1U   13.5589 eV   91.44 nm  f=0.0240  <S**2>=0.000
       4 -> 10         0.11716
       5 -> 14        -0.11440
       7 -> 19        -0.16427
       8 -> 20         0.65740

 Excited State  31:      Singlet-B3G   13.5727 eV   91.35 nm  f=0.0000  <S**2>=0.000
       8 -> 22         0.70295

 Excited State  32:      Singlet-B2U   13.5904 eV   91.23 nm  f=0.3498  <S**2>=0.000
       5 -> 13         0.21800
       6 -> 12        -0.10431
       7 -> 18         0.64510

 Excited State  33:      Singlet-B3G   13.7925 eV   89.89 nm  f=0.0000  <S**2>=0.000
       6 -> 14         0.70661

 Excited State  34:      Singlet-AG    13.8347 eV   89.62 nm  f=0.0000  <S**2>=0.000
       4 -> 11        -0.10056
       5 -> 12         0.54804
       6 -> 15        -0.40047
       7 -> 14        -0.10187

 Excited State  35:      Singlet-B3U   14.0145 eV   88.47 nm  f=0.0584  <S**2>=0.000
       4 ->  9         0.62601
       5 -> 17        -0.11661
       6 -> 16         0.23249
       7 -> 22        -0.14816

 Excited State  36:      Singlet-B1U   14.1136 eV   87.85 nm  f=0.3411  <S**2>=0.000
       4 -> 10         0.18369
       7 -> 19         0.65100
       8 -> 20         0.11336

 Excited State  37:      Singlet-B3U   14.5981 eV   84.93 nm  f=0.0987  <S**2>=0.000
       4 ->  9        -0.18364
       6 -> 16         0.66130
       7 -> 22         0.11017

 Excited State  38:      Singlet-B1G   14.6727 eV   84.50 nm  f=0.0000  <S**2>=0.000
       6 -> 17         0.66561
       7 -> 20        -0.23804

 Excited State  39:      Singlet-AG    14.6954 eV   84.37 nm  f=0.0000  <S**2>=0.000
       4 -> 11        -0.32188
       5 -> 12         0.27864
       6 -> 15         0.53201

 Excited State  40:      Singlet-B1G   14.8059 eV   83.74 nm  f=0.0000  <S**2>=0.000
       6 -> 17         0.23836
       7 -> 20         0.66491

 Excited State  41:      Singlet-B1U   14.8061 eV   83.74 nm  f=0.0002  <S**2>=0.000
       4 -> 10         0.55462
       5 -> 14         0.27125
       6 -> 18         0.32301

 Excited State  42:      Singlet-B2U   14.8789 eV   83.33 nm  f=0.3265  <S**2>=0.000
       5 -> 13         0.62362
       6 -> 19        -0.26479
       7 -> 18        -0.14162

 Excited State  43:      Singlet-B3U   15.0338 eV   82.47 nm  f=0.0289  <S**2>=0.000
       8 -> 23         0.70104

 Excited State  44:      Singlet-B2U   15.1096 eV   82.06 nm  f=0.0002  <S**2>=0.000
       7 -> 21         0.70335

 Excited State  45:      Singlet-B1U   15.1505 eV   81.84 nm  f=0.0281  <S**2>=0.000
       4 -> 10        -0.15151
       5 -> 14        -0.36920
       6 -> 18         0.58025

 Excited State  46:      Singlet-B3U   15.3178 eV   80.94 nm  f=0.1783  <S**2>=0.000
       4 ->  9         0.12104
       5 -> 17        -0.17747
       7 -> 22         0.66668

 Excited State  47:      Singlet-B2U   15.4703 eV   80.14 nm  f=0.0001  <S**2>=0.000
       5 -> 15         0.68932
       6 -> 19        -0.15237

 Excited State  48:      Singlet-B1G   15.5668 eV   79.65 nm  f=0.0000  <S**2>=0.000
       8 -> 24         0.70595

 Excited State  49:      Singlet-B1U   15.6178 eV   79.39 nm  f=0.0148  <S**2>=0.000
       4 -> 10        -0.32574
       5 -> 14         0.50666
       6 -> 18         0.22045
       6 -> 21         0.13828
       7 -> 19         0.10549
       8 -> 20         0.16452

 Excited State  50:      Singlet-B1G   15.7312 eV   78.81 nm  f=0.0000  <S**2>=0.000
       5 -> 16         0.70649

 Excited State  51:      Singlet-AG    15.7415 eV   78.76 nm  f=0.0000  <S**2>=0.000
       4 -> 11         0.57909
       5 -> 12         0.18859
       6 -> 15         0.19231
       8 -> 25         0.19197

 Excited State  52:      Singlet-B2U   15.8122 eV   78.41 nm  f=0.2405  <S**2>=0.000
       5 -> 13         0.21034
       5 -> 15         0.14084
       6 -> 19         0.62169
       7 -> 18        -0.12177

 Excited State  53:      Singlet-AG    15.9043 eV   77.96 nm  f=0.0000  <S**2>=0.000
       4 -> 11        -0.18073
       5 -> 19        -0.11747
       8 -> 25         0.66489

 Excited State  54:      Singlet-B2G   15.9875 eV   77.55 nm  f=0.0000  <S**2>=0.000
       8 -> 26         0.70417

 Excited State  55:      Singlet-B3G   16.0929 eV   77.04 nm  f=0.0000  <S**2>=0.000
       4 -> 12         0.68604
       5 -> 18         0.11655
       7 -> 23         0.11803

 Excited State  56:      Singlet-AU    16.1569 eV   76.74 nm  f=0.0000  <S**2>=0.000
       8 -> 27         0.70655

 Excited State  57:      Singlet-B3U   16.2492 eV   76.30 nm  f=0.3580  <S**2>=0.000
       4 ->  9         0.13543
       5 -> 17         0.64572
       7 -> 22         0.12181
       8 -> 28        -0.18633

 Excited State  58:      Singlet-B3G   16.3653 eV   75.76 nm  f=0.0000  <S**2>=0.000
       5 -> 18         0.61888
       7 -> 23        -0.33374

 Excited State  59:      Singlet-B2G   16.5400 eV   74.96 nm  f=0.0000  <S**2>=0.000
       6 -> 20         0.70671

 Excited State  60:      Singlet-B3G   16.9210 eV   73.27 nm  f=0.0000  <S**2>=0.000
       4 -> 12        -0.15227
       5 -> 18         0.30685
       7 -> 23         0.60736

 Excited State  61:      Singlet-AU    16.9624 eV   73.09 nm  f=0.0000  <S**2>=0.000
       6 -> 22         0.70542

 Excited State  62:      Singlet-AG    16.9842 eV   73.00 nm  f=0.0000  <S**2>=0.000
       5 -> 19         0.68304
       8 -> 25         0.11273

 Excited State  63:      Singlet-B1U   17.0110 eV   72.88 nm  f=0.1384  <S**2>=0.000
       4 -> 13        -0.18286
       6 -> 21         0.59513
       7 -> 24         0.30218

 Excited State  64:      Singlet-B1U   17.2710 eV   71.79 nm  f=0.1315  <S**2>=0.000
       4 -> 13         0.67836
       6 -> 21         0.16595

 Excited State  65:      Singlet-B3U   17.5413 eV   70.68 nm  f=0.2208  <S**2>=0.000
       5 -> 17         0.13221
       8 -> 28         0.66335
       8 -> 32         0.12512

 Excited State  66:      Singlet-AU    17.6122 eV   70.40 nm  f=0.0000  <S**2>=0.000
       7 -> 25         0.70383

 Excited State  67:      Singlet-B1U   17.6701 eV   70.17 nm  f=0.2111  <S**2>=0.000
       4 -> 15        -0.22085
       6 -> 21        -0.26738
       7 -> 24         0.58626
       7 -> 29         0.13420

 Excited State  68:      Singlet-B2U   17.6772 eV   70.14 nm  f=0.0011  <S**2>=0.000
       4 -> 14        -0.46952
       7 -> 26         0.51540

 Excited State  69:      Singlet-AU    17.8517 eV   69.45 nm  f=0.0000  <S**2>=0.000
       5 -> 20         0.70122

 Excited State  70:      Singlet-B1G   17.8622 eV   69.41 nm  f=0.0000  <S**2>=0.000
       8 -> 29         0.70652

 Excited State  71:      Singlet-AG    17.8707 eV   69.38 nm  f=0.0000  <S**2>=0.000
       7 -> 27         0.69036

 Excited State  72:      Singlet-B2U   17.8766 eV   69.36 nm  f=0.1273  <S**2>=0.000
       4 -> 14         0.51840
       7 -> 26         0.47211

 Excited State  73:      Singlet-AU    18.0202 eV   68.80 nm  f=0.0000  <S**2>=0.000
       8 -> 30         0.70383

 Excited State  74:      Singlet-B3G   18.1458 eV   68.33 nm  f=0.0000  <S**2>=0.000
       5 -> 21         0.70342

 Excited State  75:      Singlet-B2G   18.1641 eV   68.26 nm  f=0.0000  <S**2>=0.000
       5 -> 22        -0.26683
       8 -> 31         0.65121

 Excited State  76:      Singlet-B2G   18.1827 eV   68.19 nm  f=0.0000  <S**2>=0.000
       3 ->  9        -0.41721
       4 -> 16         0.18293
       5 -> 22         0.49497
       8 -> 31         0.19823

 Excited State  77:      Singlet-B1U   18.1872 eV   68.17 nm  f=0.2015  <S**2>=0.000
       4 -> 15         0.66283
       7 -> 24         0.19054

 Excited State  78:      Singlet-B2G   18.3384 eV   67.61 nm  f=0.0000  <S**2>=0.000
       3 ->  9        -0.11754
       4 -> 16         0.62148
       5 -> 22        -0.26770
       8 -> 31        -0.16399

 Excited State  79:      Singlet-B2U   18.3424 eV   67.59 nm  f=0.0442  <S**2>=0.000
       6 -> 24         0.16210
       8 -> 33         0.67625

 Excited State  80:      Singlet-B3U   18.3656 eV   67.51 nm  f=0.0997  <S**2>=0.000
       8 -> 32         0.68779

 Excited State  81:      Singlet-B2G   18.5306 eV   66.91 nm  f=0.0000  <S**2>=0.000
       3 ->  9         0.50859
       4 -> 16         0.27389
       5 -> 22         0.32801
       8 -> 35         0.19870

 Excited State  82:      Singlet-AG    18.5382 eV   66.88 nm  f=0.0000  <S**2>=0.000
       3 -> 10         0.10928
       4 -> 18        -0.25327
       6 -> 23         0.64443

 Excited State  83:      Singlet-AU    18.6151 eV   66.60 nm  f=0.0000  <S**2>=0.000
       4 -> 17         0.70161

 Excited State  84:      Singlet-B3G   18.9361 eV   65.48 nm  f=0.0000  <S**2>=0.000
       7 -> 28         0.70464

 Excited State  85:      Singlet-B1U   18.9624 eV   65.38 nm  f=0.0169  <S**2>=0.000
       8 -> 34         0.70176

 Excited State  86:      Singlet-AG    19.0780 eV   64.99 nm  f=0.0000  <S**2>=0.000
       3 -> 10         0.36736
       4 -> 18         0.57737
       6 -> 23         0.15501

 Excited State  87:      Singlet-B2U   19.2076 eV   64.55 nm  f=0.0335  <S**2>=0.000
       5 -> 23         0.13238
       6 -> 24         0.63010
       7 -> 31         0.25096
       8 -> 33        -0.10268

 Excited State  88:      Singlet-AG    19.4193 eV   63.85 nm  f=0.0000  <S**2>=0.000
       3 -> 10         0.54594
       4 -> 18        -0.26450
       6 -> 23        -0.15763
       7 -> 30        -0.31186

 Excited State  89:      Singlet-B3G   19.4809 eV   63.64 nm  f=0.0000  <S**2>=0.000
       4 -> 19         0.55629
       6 -> 27        -0.41388
       7 -> 32        -0.12540

 Excited State  90:      Singlet-B1U   19.5203 eV   63.52 nm  f=0.0722  <S**2>=0.000
       3 -> 11         0.12301
       6 -> 26         0.68808

 Excited State  91:      Singlet-B3U   19.5537 eV   63.41 nm  f=0.2756  <S**2>=0.000
       4 -> 20        -0.13062
       6 -> 25         0.67949

 Excited State  92:      Singlet-B3G   19.5897 eV   63.29 nm  f=0.0000  <S**2>=0.000
       4 -> 19         0.38567
       6 -> 27         0.56873
       7 -> 32        -0.12610

 Excited State  93:      Singlet-B2U   19.7668 eV   62.72 nm  f=0.0498  <S**2>=0.000
       5 -> 23         0.63093
       7 -> 31        -0.30643

 Excited State  94:      Singlet-B1U   19.8659 eV   62.41 nm  f=0.1143  <S**2>=0.000
       3 -> 11         0.50899
       6 -> 26        -0.11294
       7 -> 29        -0.45490

 Excited State  95:      Singlet-B2G   19.9701 eV   62.08 nm  f=0.0000  <S**2>=0.000
       7 -> 33         0.67878
       8 -> 35        -0.19589

 Excited State  96:      Singlet-AG    20.1072 eV   61.66 nm  f=0.0000  <S**2>=0.000
       3 -> 10         0.18519
       4 -> 18        -0.11857
       5 -> 24        -0.40355
       6 -> 23        -0.11566
       7 -> 30         0.50425

 Excited State  97:      Singlet-B1U   20.1148 eV   61.64 nm  f=0.0227  <S**2>=0.000
       3 -> 11         0.45367
       6 -> 31         0.10060
       7 -> 29         0.49549

 Excited State  98:      Singlet-B3G   20.1160 eV   61.63 nm  f=0.0000  <S**2>=0.000
       4 -> 19         0.16054
       7 -> 32         0.67696

 Excited State  99:      Singlet-B2G   20.3994 eV   60.78 nm  f=0.0000  <S**2>=0.000
       3 ->  9        -0.18881
       7 -> 33         0.18795
       8 -> 35         0.63204
       8 -> 36         0.11065

 Excited State 100:      Singlet-B2U   20.5813 eV   60.24 nm  f=0.3973  <S**2>=0.000
       3 -> 12        -0.34862
       5 -> 23         0.24526
       6 -> 24        -0.15266
       6 -> 29        -0.22616
       7 -> 31         0.44856
       7 -> 35         0.12384

 Excited State 101:      Singlet-AG    20.5895 eV   60.22 nm  f=0.0000  <S**2>=0.000
       4 -> 21         0.54470
       5 -> 24         0.37809
       7 -> 30         0.17302

 Excited State 102:      Singlet-B1G   20.6150 eV   60.14 nm  f=0.0000  <S**2>=0.000
       5 -> 25         0.61208
       7 -> 34         0.34693

 Excited State 103:      Singlet-B3U   20.6273 eV   60.11 nm  f=0.0000  <S**2>=0.000
       4 -> 20         0.68829
       6 -> 25         0.10920

 Excited State 104:      Singlet-B1G   20.6622 eV   60.01 nm  f=0.0000  <S**2>=0.000
       5 -> 25        -0.34965
       7 -> 34         0.61381

 Excited State 105:      Singlet-AG    20.7135 eV   59.86 nm  f=0.0000  <S**2>=0.000
       6 -> 28         0.69862

 Excited State 106:      Singlet-B3G   20.7742 eV   59.68 nm  f=0.0000  <S**2>=0.000
       5 -> 26         0.70123

 Excited State 107:      Singlet-B1G   20.8880 eV   59.36 nm  f=0.0000  <S**2>=0.000
       4 -> 22         0.70277

 Excited State 108:      Singlet-B1U   20.9030 eV   59.31 nm  f=0.0630  <S**2>=0.000
       5 -> 27         0.69800

 Excited State 109:      Singlet-B2U   21.0319 eV   58.95 nm  f=0.0026  <S**2>=0.000
       3 -> 12         0.54951
       6 -> 29        -0.35021
       7 -> 31         0.18085

 Excited State 110:      Singlet-AG    21.2297 eV   58.40 nm  f=0.0000  <S**2>=0.000
       3 -> 13         0.10053
       4 -> 21         0.38462
       4 -> 26        -0.11027
       5 -> 24        -0.33990
       6 -> 32        -0.36153
       7 -> 30        -0.21238

 Excited State 111:      Singlet-B3G   21.4988 eV   57.67 nm  f=0.0000  <S**2>=0.000
       6 -> 30         0.70144

 Excited State 112:      Singlet-B2U   21.6053 eV   57.39 nm  f=0.0353  <S**2>=0.000
       3 -> 12         0.18776
       5 -> 28        -0.23402
       5 -> 32         0.12760
       6 -> 29         0.41856
       7 -> 31         0.13502
       7 -> 35         0.42977

 Excited State 113:      Singlet-B1G   21.7696 eV   56.95 nm  f=0.0000  <S**2>=0.000
       6 -> 33         0.70669

 Excited State 114:      Singlet-B2U   21.8209 eV   56.82 nm  f=0.1385  <S**2>=0.000
       5 -> 28         0.15564
       5 -> 32        -0.19692
       6 -> 29        -0.31730
       7 -> 31        -0.16400
       7 -> 35         0.53150

 Excited State 115:      Singlet-AG    21.8488 eV   56.75 nm  f=0.0000  <S**2>=0.000
       3 -> 13         0.68776
       6 -> 32         0.13521

 Excited State 116:      Singlet-B1U   21.8789 eV   56.67 nm  f=0.1713  <S**2>=0.000
       4 -> 23        -0.28448
       6 -> 31         0.62842
       6 -> 35        -0.11594

 Excited State 117:      Singlet-B2U   22.0756 eV   56.16 nm  f=0.0390  <S**2>=0.000
       3 -> 12         0.10045
       5 -> 28         0.63689
       5 -> 32         0.19236
       6 -> 29         0.15708
       7 -> 31         0.10538

 Excited State 118:      Singlet-B2G   22.0922 eV   56.12 nm  f=0.0000  <S**2>=0.000
       8 -> 36         0.69478

 Excited State 119:      Singlet-AG    22.1216 eV   56.05 nm  f=0.0000  <S**2>=0.000
       3 -> 15        -0.15613
       4 -> 21         0.16330
       4 -> 26        -0.18845
       5 -> 24        -0.18486
       6 -> 32         0.56289
       7 -> 30        -0.13945
       8 -> 40         0.10242

 Excited State 120:      Singlet-B3G   22.1426 eV   55.99 nm  f=0.0000  <S**2>=0.000
       3 -> 14        -0.22751
       5 -> 31         0.10024
       8 -> 37         0.65797

 Excited State 121:      Singlet-B3G   22.3938 eV   55.37 nm  f=0.0000  <S**2>=0.000
       3 -> 14         0.64742
       5 -> 31         0.19395
       8 -> 37         0.19338

 Excited State 122:      Singlet-B2G   22.3987 eV   55.35 nm  f=0.0000  <S**2>=0.000
       6 -> 34         0.70640

 Excited State 123:      Singlet-B1U   22.5922 eV   54.88 nm  f=0.0011  <S**2>=0.000
       3 -> 18        -0.10982
       4 -> 23         0.54702
       5 -> 30         0.36496
       6 -> 31         0.18142
       6 -> 35        -0.13081

 Excited State 124:      Singlet-AG    22.8032 eV   54.37 nm  f=0.0000  <S**2>=0.000
       3 -> 15        -0.10714
       5 -> 29         0.68546

 Excited State 125:      Singlet-AG    22.8978 eV   54.15 nm  f=0.0000  <S**2>=0.000
       3 -> 15         0.67633
       5 -> 29         0.10343
       6 -> 32         0.10541

 Excited State 126:      Singlet-AU    22.9127 eV   54.11 nm  f=0.0000  <S**2>=0.000
       8 -> 38         0.70487

 Excited State 127:      Singlet-B3G   22.9826 eV   53.95 nm  f=0.0000  <S**2>=0.000
       4 -> 24         0.64955
       5 -> 31         0.24850

 Excited State 128:      Singlet-B3U   23.0186 eV   53.86 nm  f=0.0687  <S**2>=0.000
       3 -> 16         0.50800
       5 -> 33         0.49076

 Excited State 129:      Singlet-B1U   23.0946 eV   53.69 nm  f=0.1037  <S**2>=0.000
       3 -> 18         0.19282
       4 -> 23        -0.22010
       5 -> 30         0.54295
       6 -> 35         0.31312

 Excited State 130:      Singlet-B1G   23.2466 eV   53.33 nm  f=0.0000  <S**2>=0.000
       3 -> 17         0.70637

 Excited State 131:      Singlet-B3U   23.2801 eV   53.26 nm  f=0.0009  <S**2>=0.000
       3 -> 16        -0.47443
       5 -> 33         0.48422
       7 -> 37         0.15617
       8 -> 39         0.10273

 Excited State 132:      Singlet-B2G   23.4063 eV   52.97 nm  f=0.0000  <S**2>=0.000
       4 -> 25         0.69601

 Excited State 133:      Singlet-B3G   23.4451 eV   52.88 nm  f=0.0000  <S**2>=0.000
       3 -> 14        -0.11850
       4 -> 24        -0.24412
       4 -> 29        -0.12777
       5 -> 31         0.60466
       7 -> 39        -0.10778
       8 -> 37        -0.13113

 Excited State 134:      Singlet-B2U   23.4618 eV   52.85 nm  f=0.0123  <S**2>=0.000
       4 -> 27         0.68803
       7 -> 36         0.14309

 Excited State 135:      Singlet-B1U   23.5785 eV   52.58 nm  f=0.0357  <S**2>=0.000
       3 -> 18         0.65537
       6 -> 35        -0.22838

 Excited State 136:      Singlet-B2U   23.6315 eV   52.47 nm  f=0.1450  <S**2>=0.000
       3 -> 19         0.14659
       5 -> 32        -0.29646

 The electronic state is 1-AG.
 Alpha  occ. eigenvalues --   -9.89732  -9.89667  -0.68583  -0.51731  -0.42224
 Alpha  occ. eigenvalues --   -0.37497  -0.31119  -0.24944
 Alpha virt. eigenvalues --   -0.03428   0.02093   0.04319   0.07046   0.11248
 Alpha virt. eigenvalues --    0.13182   0.14678   0.15673   0.16498   0.17612
 Alpha virt. eigenvalues --    0.19239   0.23425   0.24232   0.24965   0.30103

 Mulliken charges:
               1
     1  C    0.209738
     2  C    0.209738
     3  H   -0.104869
     4  H   -0.104869
     5  H   -0.104869
     6  H   -0.104869
 Sum of Mulliken charges =  -0.00000

 Dipole moment (field-independent basis, Debye):
    X=              0.0000    Y=              0.0000    Z=              0.0000  Tot=              0.0000
 Quadrupole moment (field-independent basis, Debye-Ang):
   XX=            -15.3365   YY=            -12.5320   ZZ=            -12.5473
   XY=              0.0000   XZ=             -0.0000   YZ=             -0.0000

 Normal termination of Gaussian 16 at Mon Mar 21 20:20:07 2022.
