 Gaussian 16, Revision C.01,
 Gaussian 16:  EM64L-G16RevC.01  3-Jul-2019

 ----------------------------------------------------------------------
 #P TD(Nstates=10000) pbepbe/Gen SCF(maxcycles=100) Int(Grid=ultrafine)
 ----------------------------------------------------------------------

 ---------------------
 xGDB7_00001_tier4.com
 ---------------------
 Symbolic Z-matrix:
 Charge =  0 Multiplicity = 1

                         Standard orientation:
 ---------------------------------------------------------------------
 Center     Atomic      Atomic             Coordinates (Angstroms)
 Number     Number       Type             X           Y           Z
 ---------------------------------------------------------------------
      1          6           0       -0.026655   -0.220923    1.206915
      2          7           0       -0.026655    0.579675   -0.000000
      3          6           0       -0.026655   -0.220923   -1.206915
      4          1           0        0.028929    0.427196    2.082330
      5          1           0        0.800836   -0.947383    1.258571
      6          1           0       -0.961718   -0.783094    1.269367
      7          1           0        0.770359    1.199905   -0.000000
      8          1           0       -0.961718   -0.783094   -1.269367
      9          1           0        0.800836   -0.947383   -1.258571
     10          1           0        0.028929    0.427196   -2.082330
 ---------------------------------------------------------------------

 SCF Done:  E(RPBE-PBE) =  -134.886442770     A.U. after   12 cycles

 Excitation energies and oscillator strengths:

 Excited State   1:      Singlet-A'     5.1184 eV  242.23 nm  f=0.0065  <S**2>=0.000
      13 -> 14         0.70648
 This state for optimization and/or second-order correction.
 Total Energy, E(TD-HF/TD-DFT) =  -134.698344494
 Copying the excited state density for this state as the 1-particle RhoCI density.

 Excited State   2:      Singlet-A"     5.9782 eV  207.39 nm  f=0.0047  <S**2>=0.000
      13 -> 15         0.70679

 Excited State   3:      Singlet-A'     6.2056 eV  199.79 nm  f=0.0303  <S**2>=0.000
      13 -> 16         0.70534

 Excited State   4:      Singlet-A'     7.0448 eV  175.99 nm  f=0.0119  <S**2>=0.000
      13 -> 17         0.64270
      13 -> 18        -0.29120

 Excited State   5:      Singlet-A'     7.1399 eV  173.65 nm  f=0.0888  <S**2>=0.000
      13 -> 17         0.28872
      13 -> 18         0.64148

 Excited State   6:      Singlet-A"     7.8230 eV  158.49 nm  f=0.0183  <S**2>=0.000
      13 -> 20         0.70313

 Excited State   7:      Singlet-A'     7.8942 eV  157.06 nm  f=0.0049  <S**2>=0.000
      13 -> 19         0.70017

 Excited State   8:      Singlet-A"     8.2735 eV  149.86 nm  f=0.0768  <S**2>=0.000
      13 -> 21         0.69958

 Excited State   9:      Singlet-A'     8.3478 eV  148.52 nm  f=0.0064  <S**2>=0.000
      13 -> 22         0.70061

 Excited State  10:      Singlet-A"     8.8849 eV  139.55 nm  f=0.0136  <S**2>=0.000
      12 -> 14        -0.44559
      13 -> 23         0.54674

 Excited State  11:      Singlet-A"     8.9048 eV  139.23 nm  f=0.0392  <S**2>=0.000
      12 -> 14         0.54637
      13 -> 23         0.44114

 Excited State  12:      Singlet-A'     8.9781 eV  138.10 nm  f=0.0109  <S**2>=0.000
      11 -> 14         0.69140
      13 -> 24        -0.14020

 Excited State  13:      Singlet-A'     9.2037 eV  134.71 nm  f=0.0045  <S**2>=0.000
      11 -> 14         0.13438
      13 -> 24         0.68554

 Excited State  14:      Singlet-A"     9.4009 eV  131.89 nm  f=0.0077  <S**2>=0.000
      10 -> 14         0.15861
      13 -> 25         0.68468

 Excited State  15:      Singlet-A"     9.4455 eV  131.26 nm  f=0.0073  <S**2>=0.000
      10 -> 14         0.68772
      13 -> 25        -0.15855

 Excited State  16:      Singlet-A'     9.8191 eV  126.27 nm  f=0.0192  <S**2>=0.000
      12 -> 15         0.70091

 Excited State  17:      Singlet-A"     9.8355 eV  126.06 nm  f=0.0025  <S**2>=0.000
      11 -> 15         0.70009

 Excited State  18:      Singlet-A"     9.9310 eV  124.85 nm  f=0.0051  <S**2>=0.000
      12 -> 16         0.69235
      13 -> 26         0.12075

 Excited State  19:      Singlet-A"    10.0056 eV  123.92 nm  f=0.0264  <S**2>=0.000
      12 -> 16        -0.12060
      13 -> 26         0.68730

 Excited State  20:      Singlet-A'    10.0468 eV  123.41 nm  f=0.1113  <S**2>=0.000
      11 -> 16         0.69830

 Excited State  21:      Singlet-A'    10.3516 eV  119.77 nm  f=0.0637  <S**2>=0.000
      10 -> 15         0.69812

 Excited State  22:      Singlet-A"    10.4805 eV  118.30 nm  f=0.0007  <S**2>=0.000
      10 -> 16         0.70344

 Excited State  23:      Singlet-A'    10.7054 eV  115.81 nm  f=0.0076  <S**2>=0.000
      13 -> 27         0.67199
      13 -> 28        -0.10926

 Excited State  24:      Singlet-A"    10.8265 eV  114.52 nm  f=0.0079  <S**2>=0.000
       9 -> 14        -0.17369
      12 -> 17         0.51393
      12 -> 18         0.44822

 Excited State  25:      Singlet-A'    10.8648 eV  114.12 nm  f=0.0187  <S**2>=0.000
      11 -> 17         0.68136
      11 -> 18         0.17077

 Excited State  26:      Singlet-A"    10.9166 eV  113.57 nm  f=0.1487  <S**2>=0.000
       9 -> 14         0.24985
      12 -> 17         0.46241
      12 -> 18        -0.44900

 Excited State  27:      Singlet-A'    10.9291 eV  113.44 nm  f=0.0579  <S**2>=0.000
       8 -> 14         0.67513
      11 -> 18        -0.16509

 Excited State  28:      Singlet-A"    10.9673 eV  113.05 nm  f=0.0461  <S**2>=0.000
       9 -> 14         0.61919
      12 -> 18         0.29658

 Excited State  29:      Singlet-A'    11.0744 eV  111.96 nm  f=0.0641  <S**2>=0.000
       8 -> 14         0.16465
      11 -> 17        -0.15484
      11 -> 18         0.63299
      13 -> 28        -0.14105

 Excited State  30:      Singlet-A'    11.2428 eV  110.28 nm  f=0.0180  <S**2>=0.000
       9 -> 15        -0.10243
      11 -> 18         0.12275
      13 -> 28         0.66545

 Excited State  31:      Singlet-A"    11.2800 eV  109.92 nm  f=0.0154  <S**2>=0.000
      10 -> 17         0.14565
      13 -> 29         0.67935

 Excited State  32:      Singlet-A"    11.4243 eV  108.53 nm  f=0.0087  <S**2>=0.000
      10 -> 17         0.60474
      10 -> 18        -0.32274

 Excited State  33:      Singlet-A"    11.5621 eV  107.23 nm  f=0.0221  <S**2>=0.000
      10 -> 17         0.23136
      10 -> 18         0.53638
      11 -> 20         0.31146
      12 -> 19        -0.11933

 Excited State  34:      Singlet-A"    11.6627 eV  106.31 nm  f=0.0049  <S**2>=0.000
       8 -> 15         0.10209
      10 -> 17         0.16729
      10 -> 18         0.17923
      11 -> 20        -0.31004
      12 -> 19         0.55468

 Excited State  35:      Singlet-A'    11.6851 eV  106.10 nm  f=0.0006  <S**2>=0.000
      11 -> 19         0.59148
      12 -> 20        -0.34352

 Excited State  36:      Singlet-A"    11.7208 eV  105.78 nm  f=0.0169  <S**2>=0.000
       8 -> 15        -0.16223
       9 -> 16         0.13762
      10 -> 18        -0.12777
      11 -> 20         0.49926
      12 -> 19         0.39695

 Excited State  37:      Singlet-A'    11.7370 eV  105.64 nm  f=0.0351  <S**2>=0.000
       7 -> 14        -0.10661
       8 -> 16         0.12646
       9 -> 15         0.11625
      11 -> 19         0.32615
      12 -> 20         0.55867
      13 -> 30         0.10361

 Excited State  38:      Singlet-A"    11.8001 eV  105.07 nm  f=0.0244  <S**2>=0.000
       8 -> 15         0.67565
      11 -> 20         0.15668

 Excited State  39:      Singlet-A'    11.8044 eV  105.03 nm  f=0.0447  <S**2>=0.000
       9 -> 15         0.66570
      13 -> 30        -0.15328

 Excited State  40:      Singlet-A'    11.9003 eV  104.19 nm  f=0.0576  <S**2>=0.000
       8 -> 16         0.34802
       9 -> 15         0.12185
      11 -> 19        -0.13439
      12 -> 20        -0.10380
      13 -> 30         0.55060

 Excited State  41:      Singlet-A'    11.9377 eV  103.86 nm  f=0.0529  <S**2>=0.000
       8 -> 16         0.57840
      12 -> 21         0.13216
      13 -> 30        -0.33933

 Excited State  42:      Singlet-A"    11.9601 eV  103.66 nm  f=0.0414  <S**2>=0.000
       9 -> 16         0.65208
      11 -> 21        -0.23388

 Excited State  43:      Singlet-A'    11.9922 eV  103.39 nm  f=0.0022  <S**2>=0.000
       8 -> 16        -0.11472
      10 -> 20         0.15218
      12 -> 21         0.67324

 Excited State  44:      Singlet-A"    12.0620 eV  102.79 nm  f=0.0110  <S**2>=0.000
       9 -> 16        -0.15091
      11 -> 21        -0.43105
      12 -> 22         0.52932

 Excited State  45:      Singlet-A"    12.1084 eV  102.40 nm  f=0.0652  <S**2>=0.000
       9 -> 16         0.12737
      10 -> 19         0.56640
      11 -> 21         0.31807
      12 -> 22         0.23023

 Excited State  46:      Singlet-A'    12.1738 eV  101.85 nm  f=0.0240  <S**2>=0.000
       7 -> 14         0.17091
      10 -> 21        -0.10860
      11 -> 22         0.66064

 Excited State  47:      Singlet-A'    12.1828 eV  101.77 nm  f=0.0441  <S**2>=0.000
      10 -> 20         0.67472
      12 -> 21        -0.12511

 Excited State  48:      Singlet-A"    12.2685 eV  101.06 nm  f=0.0266  <S**2>=0.000
      10 -> 18        -0.14010
      10 -> 19         0.39421
      11 -> 21        -0.34869
      11 -> 23         0.14004
      12 -> 22        -0.38244

 Excited State  49:      Singlet-A'    12.2924 eV  100.86 nm  f=0.0465  <S**2>=0.000
       7 -> 14         0.63935
       8 -> 17         0.10159
      10 -> 21         0.11520
      11 -> 22        -0.14987
      13 -> 31         0.11304

 Excited State  50:      Singlet-A'    12.5201 eV   99.03 nm  f=0.0516  <S**2>=0.000
       7 -> 14        -0.10152
      12 -> 23        -0.11152
      13 -> 31         0.63168
      13 -> 33         0.18660

 Excited State  51:      Singlet-A'    12.6387 eV   98.10 nm  f=0.0371  <S**2>=0.000
       8 -> 17         0.17886
      10 -> 21        -0.39059
      12 -> 23         0.50692
      13 -> 31         0.15180

 Excited State  52:      Singlet-A"    12.6762 eV   97.81 nm  f=0.0092  <S**2>=0.000
      10 -> 22         0.62912
      11 -> 23         0.27460

 Excited State  53:      Singlet-A"    12.7263 eV   97.42 nm  f=0.0000  <S**2>=0.000
       9 -> 17         0.10364
       9 -> 18        -0.10177
      11 -> 23         0.22122
      13 -> 32         0.64626

 Excited State  54:      Singlet-A'    12.7474 eV   97.26 nm  f=0.0615  <S**2>=0.000
       8 -> 17        -0.30157
       8 -> 18        -0.23023
      10 -> 21         0.35895
      10 -> 23        -0.11496
      12 -> 23         0.42402

 Excited State  55:      Singlet-A"    12.8045 eV   96.83 nm  f=0.0025  <S**2>=0.000
       9 -> 17         0.60573
       9 -> 18         0.32502
      11 -> 23        -0.10604

 Excited State  56:      Singlet-A'    12.8187 eV   96.72 nm  f=0.0015  <S**2>=0.000
      11 -> 24         0.12916
      12 -> 25         0.10238
      13 -> 31        -0.14974
      13 -> 33         0.60353
      13 -> 34         0.22534

 Excited State  57:      Singlet-A"    12.8440 eV   96.53 nm  f=0.0899  <S**2>=0.000
       9 -> 18         0.17744
      10 -> 22        -0.27644
      11 -> 23         0.50521
      12 -> 24         0.27174
      13 -> 32        -0.16985

 Excited State  58:      Singlet-A'    12.8728 eV   96.32 nm  f=0.0098  <S**2>=0.000
       8 -> 17        -0.39416
       8 -> 18         0.50354
      11 -> 24         0.21446
      13 -> 33        -0.14324

 Excited State  59:      Singlet-A"    12.9330 eV   95.87 nm  f=0.0200  <S**2>=0.000
       7 -> 15         0.14480
       9 -> 17        -0.28488
       9 -> 18         0.53227
      11 -> 25         0.11868
      12 -> 24        -0.22986
      13 -> 32         0.13780

 Excited State  60:      Singlet-A"    12.9837 eV   95.49 nm  f=0.0052  <S**2>=0.000
       9 -> 18         0.18343
      11 -> 23        -0.27568
      12 -> 24         0.58088

 Excited State  61:      Singlet-A'    12.9946 eV   95.41 nm  f=0.0416  <S**2>=0.000
       8 -> 17         0.13945
       8 -> 18         0.18479
      10 -> 21         0.13437
      11 -> 24        -0.13577
      12 -> 25        -0.14572
      13 -> 33        -0.13861
      13 -> 34         0.58400

 Excited State  62:      Singlet-A'    13.0366 eV   95.10 nm  f=0.0108  <S**2>=0.000
       8 -> 18        -0.19637
      10 -> 23         0.18069
      11 -> 24         0.54699
      12 -> 25        -0.26141
      13 -> 33        -0.10013
      13 -> 34         0.14864

 Excited State  63:      Singlet-A"    13.1393 eV   94.36 nm  f=0.0820  <S**2>=0.000
       7 -> 15         0.66632
      11 -> 25        -0.14417

 Excited State  64:      Singlet-A'    13.1403 eV   94.35 nm  f=0.0104  <S**2>=0.000
       7 -> 16        -0.24660
       8 -> 17        -0.22064
       8 -> 18        -0.27708
      10 -> 21        -0.20805
      12 -> 25         0.37793
      13 -> 34         0.25841

 Excited State  65:      Singlet-A"    13.2109 eV   93.85 nm  f=0.0047  <S**2>=0.000
       7 -> 15         0.10662
      11 -> 25         0.67685

 Excited State  66:      Singlet-A'    13.2628 eV   93.48 nm  f=0.0494  <S**2>=0.000
       7 -> 16         0.25130
       8 -> 17         0.17724
       8 -> 19         0.13345
       9 -> 20        -0.26242
      10 -> 21         0.16126
      10 -> 23         0.18051
      11 -> 24         0.10599
      12 -> 25         0.44026

 Excited State  67:      Singlet-A'    13.3115 eV   93.14 nm  f=0.0145  <S**2>=0.000
       7 -> 16         0.47568
      10 -> 21        -0.11566
      10 -> 23        -0.45505

 Excited State  68:      Singlet-A'    13.4591 eV   92.12 nm  f=0.1038  <S**2>=0.000
       7 -> 16         0.29393
       8 -> 17        -0.15739
       8 -> 19         0.27025
       9 -> 20         0.36654
      10 -> 23         0.32877
      11 -> 24        -0.15788

 Excited State  69:      Singlet-A"    13.4931 eV   91.89 nm  f=0.0197  <S**2>=0.000
       8 -> 20        -0.13604
       9 -> 19        -0.13676
      10 -> 24         0.67310

 Excited State  70:      Singlet-A"    13.6353 eV   90.93 nm  f=0.0050  <S**2>=0.000
       8 -> 20        -0.17048
       9 -> 19         0.54396
      11 -> 26         0.10943
      13 -> 36         0.36156

 Excited State  71:      Singlet-A'    13.6508 eV   90.83 nm  f=0.0017  <S**2>=0.000
       8 -> 19        -0.13711
       9 -> 20         0.10137
      10 -> 25        -0.14391
      13 -> 35         0.65015

 Excited State  72:      Singlet-A"    13.6827 eV   90.61 nm  f=0.0760  <S**2>=0.000
       8 -> 20         0.62701
       8 -> 21        -0.13080
       9 -> 19         0.16549
      10 -> 24         0.15082

 Excited State  73:      Singlet-A'    13.7124 eV   90.42 nm  f=0.0549  <S**2>=0.000
       8 -> 19         0.41021
       9 -> 20        -0.20684
       9 -> 21        -0.10062
      10 -> 25        -0.35748
      12 -> 26        -0.32342

 Excited State  74:      Singlet-A"    13.7348 eV   90.27 nm  f=0.0547  <S**2>=0.000
       9 -> 19        -0.23439
      11 -> 26        -0.42425
      13 -> 36         0.49280

 Excited State  75:      Singlet-A'    13.7392 eV   90.24 nm  f=0.0425  <S**2>=0.000
       8 -> 19         0.11460
       9 -> 21        -0.11411
      10 -> 25        -0.32740
      12 -> 26         0.54865
      13 -> 35        -0.12551

 Excited State  76:      Singlet-A'    13.8670 eV   89.41 nm  f=0.1443  <S**2>=0.000
       7 -> 16        -0.11888
       7 -> 17         0.14235
       8 -> 19         0.36926
       8 -> 22         0.20358
       9 -> 20         0.11715
      10 -> 23        -0.16836
      10 -> 25         0.34626
      12 -> 26         0.13090
      13 -> 37        -0.19821

 Excited State  77:      Singlet-A'    13.8706 eV   89.39 nm  f=0.0351  <S**2>=0.000
       7 -> 18        -0.17076
       8 -> 17         0.11130
       9 -> 20         0.34881
       9 -> 21        -0.11374
      12 -> 26        -0.19993
      13 -> 35        -0.10366
      13 -> 37         0.44477

 Excited State  78:      Singlet-A"    13.9480 eV   88.89 nm  f=0.1726  <S**2>=0.000
       8 -> 21        -0.17531
       9 -> 19        -0.22269
      11 -> 26         0.51990
      12 -> 27         0.10984
      13 -> 36         0.29449

 Excited State  79:      Singlet-A'    13.9915 eV   88.61 nm  f=0.0463  <S**2>=0.000
       7 -> 18         0.20420
       8 -> 19         0.10728
       9 -> 21         0.51343
      13 -> 37         0.35689

 Excited State  80:      Singlet-A"    14.0632 eV   88.16 nm  f=0.0016  <S**2>=0.000
       8 -> 21         0.36791
       9 -> 22         0.58325

 Excited State  81:      Singlet-A'    14.0688 eV   88.13 nm  f=0.0193  <S**2>=0.000
       7 -> 17        -0.15935
       7 -> 18         0.29159
       8 -> 22         0.38318
       9 -> 20        -0.13321
       9 -> 21        -0.33228
      10 -> 26        -0.10534
      11 -> 27        -0.11401
      13 -> 37         0.22197

 Excited State  82:      Singlet-A'    14.1178 eV   87.82 nm  f=0.0262  <S**2>=0.000
       7 -> 17         0.59782
       7 -> 18         0.19089
       8 -> 22        -0.19130
       9 -> 21        -0.13893
      10 -> 26        -0.12558

 Excited State  83:      Singlet-A"    14.1706 eV   87.49 nm  f=0.0298  <S**2>=0.000
       8 -> 20         0.12807
       8 -> 21         0.50016
       9 -> 22        -0.38991
      12 -> 27         0.19280

 Excited State  84:      Singlet-A'    14.2102 eV   87.25 nm  f=0.0346  <S**2>=0.000
       7 -> 18        -0.19661
       8 -> 22        -0.21941
       9 -> 21        -0.10493
      10 -> 26        -0.20930
      11 -> 27        -0.11469
      13 -> 38         0.55887

 Excited State  85:      Singlet-A'    14.2519 eV   86.99 nm  f=0.0128  <S**2>=0.000
       8 -> 22         0.14756
      11 -> 27         0.61767
      13 -> 38         0.22474

 Excited State  86:      Singlet-A"    14.2640 eV   86.92 nm  f=0.0798  <S**2>=0.000
       8 -> 21        -0.15870
      11 -> 29        -0.10827
      12 -> 27         0.64135
      12 -> 28         0.13622

 Excited State  87:      Singlet-A'    14.3092 eV   86.65 nm  f=0.0507  <S**2>=0.000
       7 -> 17         0.17193
       8 -> 22         0.20338
      10 -> 25        -0.11554
      10 -> 26         0.48641
      11 -> 27        -0.16828
      13 -> 38         0.31919

 Excited State  88:      Singlet-A"    14.3724 eV   86.27 nm  f=0.0007  <S**2>=0.000
      13 -> 39         0.70017

 Excited State  89:      Singlet-A'    14.4686 eV   85.69 nm  f=0.1982  <S**2>=0.000
       7 -> 18        -0.18486
       7 -> 19         0.15877
       8 -> 17        -0.11562
       8 -> 22        -0.14904
       9 -> 20        -0.12235
       9 -> 21        -0.13051
       9 -> 23         0.34455
      10 -> 25         0.13220
      10 -> 26         0.32518
      11 -> 27         0.18603
      13 -> 37         0.15521
      13 -> 38        -0.10588

 Excited State  90:      Singlet-A'    14.5886 eV   84.99 nm  f=0.0392  <S**2>=0.000
       7 -> 17         0.15077
       7 -> 18        -0.35893
       8 -> 22         0.23010
       9 -> 23        -0.10911
       9 -> 25         0.13046
      10 -> 26        -0.13991
      13 -> 40         0.38685

 Excited State  91:      Singlet-A'    14.6515 eV   84.62 nm  f=0.0323  <S**2>=0.000
       7 -> 18         0.21089
       8 -> 22        -0.12322
       9 -> 20         0.11014
       9 -> 23         0.11031
      11 -> 28         0.11964
      13 -> 40         0.56707

 Excited State  92:      Singlet-A"    14.6516 eV   84.62 nm  f=0.0055  <S**2>=0.000
       8 -> 23         0.44568
      10 -> 27        -0.18291
      13 -> 41         0.50857

 Excited State  93:      Singlet-A"    14.7290 eV   84.18 nm  f=0.0054  <S**2>=0.000
       7 -> 20        -0.16500
       8 -> 23         0.49514
       8 -> 25         0.10428
      13 -> 41        -0.44847

 Excited State  94:      Singlet-A'    14.7567 eV   84.02 nm  f=0.0849  <S**2>=0.000
       7 -> 19        -0.26445
       8 -> 22         0.12003
       9 -> 23         0.53627
      10 -> 26        -0.14435
      11 -> 28        -0.20583

 Excited State  95:      Singlet-A"    14.7773 eV   83.90 nm  f=0.0426  <S**2>=0.000
       8 -> 23         0.10091
       9 -> 24        -0.14092
      10 -> 27         0.65472
      13 -> 41         0.12688

 Excited State  96:      Singlet-A"    14.9175 eV   83.11 nm  f=0.0073  <S**2>=0.000
       7 -> 20        -0.16757
       8 -> 25        -0.11714
       9 -> 24         0.63345
      12 -> 28        -0.20564

 Excited State  97:      Singlet-A'    14.9287 eV   83.05 nm  f=0.0105  <S**2>=0.000
       8 -> 24         0.67683
       9 -> 25        -0.12884

 Excited State  98:      Singlet-A"    14.9510 eV   82.93 nm  f=0.0336  <S**2>=0.000
       7 -> 20         0.32822
       9 -> 24         0.21980
      11 -> 29         0.34425
      12 -> 28         0.44264

 Excited State  99:      Singlet-A"    14.9777 eV   82.78 nm  f=0.0029  <S**2>=0.000
       7 -> 20         0.53776
       8 -> 23         0.11391
      11 -> 29        -0.20935
      12 -> 28        -0.31929

 Excited State 100:      Singlet-A"    15.0262 eV   82.51 nm  f=0.0038  <S**2>=0.000
       8 -> 25        -0.15031
      13 -> 42         0.66508
      13 -> 43         0.11303

 Excited State 101:      Singlet-A'    15.0607 eV   82.32 nm  f=0.1121  <S**2>=0.000
       7 -> 19         0.48057
       7 -> 22         0.13085
       8 -> 24        -0.13264
       9 -> 23         0.12133
       9 -> 25        -0.10518
      11 -> 28        -0.27953
      12 -> 29         0.26421

 Excited State 102:      Singlet-A"    15.1062 eV   82.07 nm  f=0.0019  <S**2>=0.000
       8 -> 25         0.12372
      11 -> 29        -0.10649
      13 -> 43         0.66713

 Excited State 103:      Singlet-A'    15.1806 eV   81.67 nm  f=0.0337  <S**2>=0.000
       7 -> 19         0.18233
       7 -> 22         0.25462
       9 -> 23         0.12845
       9 -> 25         0.42433
      11 -> 28         0.40372

 Excited State 104:      Singlet-A"    15.3032 eV   81.02 nm  f=0.0840  <S**2>=0.000
       8 -> 25         0.51468
       9 -> 24         0.10828
      10 -> 27         0.10088
      11 -> 29        -0.27663
      12 -> 28         0.16962
      12 -> 30        -0.10724
      12 -> 31        -0.11442
      13 -> 42         0.10742
      13 -> 43        -0.14834

 Excited State 105:      Singlet-A'    15.3052 eV   81.01 nm  f=0.1428  <S**2>=0.000
       6 -> 14        -0.16246
       7 -> 19        -0.21153
       7 -> 22         0.11569
       9 -> 25        -0.18531
       9 -> 26         0.21721
      10 -> 29        -0.12424
      11 -> 28         0.19242
      12 -> 29         0.48270

 The electronic state is 1-A'.
 Alpha  occ. eigenvalues --  -13.98392  -9.90977  -9.90976  -0.81696  -0.62918
 Alpha  occ. eigenvalues --   -0.56056  -0.44243  -0.39429  -0.39389  -0.34110
 Alpha  occ. eigenvalues --   -0.32268  -0.32033  -0.18220
 Alpha virt. eigenvalues --    0.00431   0.03707   0.04257   0.07492   0.07721
 Alpha virt. eigenvalues --    0.10409   0.10422   0.11944   0.12332   0.14360
 Alpha virt. eigenvalues --    0.15310   0.16170   0.18413   0.20123   0.22666

 Mulliken charges:
               1
     1  C    0.704625
     2  N   -0.687902
     3  C    0.704625
     4  H   -0.228181
     5  H    0.006256
     6  H   -0.099641
     7  H   -0.078216
     8  H   -0.099641
     9  H    0.006256
    10  H   -0.228181
 Sum of Mulliken charges =  -0.00000

 Dipole moment (field-independent basis, Debye):
    X=              0.8743    Y=             -0.2846    Z=             -0.0000  Tot=              0.9195
 Quadrupole moment (field-independent basis, Debye-Ang):
   XX=            -21.1989   YY=            -21.7306   ZZ=            -20.2056
   XY=              2.1139   XZ=              0.0000   YZ=             -0.0000

 Normal termination of Gaussian 16 at Mon Mar 21 04:16:06 2022.
