 Gaussian 16, Revision C.01,
 Gaussian 16:  EM64L-G16RevC.01  3-Jul-2019

 ----------------------------------------------------------------------
 #P TD(Nstates=10000) pbepbe/Gen SCF(maxcycles=100) Int(Grid=ultrafine)
 ----------------------------------------------------------------------

 ---------------------
 xGDB7_00001_tier4.com
 ---------------------
 Symbolic Z-matrix:
 Charge =  0 Multiplicity = 1

                         Standard orientation:
 ---------------------------------------------------------------------
 Center     Atomic      Atomic             Coordinates (Angstroms)
 Number     Number       Type             X           Y           Z
 ---------------------------------------------------------------------
      1          7           0       -0.000002   -0.000000   -0.110463
      2          1           0       -0.147185    0.930214    0.257758
      3          1           0       -0.731998   -0.592574    0.257757
      4          1           0        0.879196   -0.337638    0.257728
 ---------------------------------------------------------------------

 SCF Done:  E(RPBE-PBE) =  -56.4479683484     A.U. after   10 cycles

 Excitation energies and oscillator strengths:

 Excited State   1:      Singlet-A      6.4337 eV  192.71 nm  f=0.0788  <S**2>=0.000
       5 ->  6         0.70649
 This state for optimization and/or second-order correction.
 Total Energy, E(TD-HF/TD-DFT) =  -56.2115330394
 Copying the excited state density for this state as the 1-particle RhoCI density.

 Excited State   2:      Singlet-A      8.6042 eV  144.10 nm  f=0.0175  <S**2>=0.000
       5 ->  7         0.70357

 Excited State   3:      Singlet-A      8.6042 eV  144.10 nm  f=0.0175  <S**2>=0.000
       5 ->  8         0.70357

 Excited State   4:      Singlet-A     10.1777 eV  121.82 nm  f=0.0002  <S**2>=0.000
       5 ->  9         0.70603

 Excited State   5:      Singlet-A     10.1777 eV  121.82 nm  f=0.0002  <S**2>=0.000
       5 -> 10         0.70603

 Excited State   6:      Singlet-A     11.1014 eV  111.68 nm  f=0.0458  <S**2>=0.000
       3 ->  7        -0.10031
       4 ->  8        -0.10031
       5 -> 11         0.66858
       5 -> 12         0.16715

 Excited State   7:      Singlet-A     11.7488 eV  105.53 nm  f=0.0286  <S**2>=0.000
       4 ->  6         0.62244
       5 -> 14        -0.33226

 Excited State   8:      Singlet-A     11.7488 eV  105.53 nm  f=0.0286  <S**2>=0.000
       3 ->  6         0.62238
       5 -> 13        -0.33238

 Excited State   9:      Singlet-A     11.9539 eV  103.72 nm  f=0.2272  <S**2>=0.000
       3 ->  6         0.29001
       4 ->  6        -0.15860
       5 -> 13         0.56429
       5 -> 14        -0.24505

 Excited State  10:      Singlet-A     11.9539 eV  103.72 nm  f=0.2272  <S**2>=0.000
       3 ->  6         0.15866
       4 ->  6         0.28989
       5 -> 13         0.24502
       5 -> 14         0.56435

 Excited State  11:      Singlet-A     12.1219 eV  102.28 nm  f=0.1754  <S**2>=0.000
       3 ->  7         0.11426
       4 ->  8         0.11426
       5 -> 11        -0.13058
       5 -> 12         0.67057

 Excited State  12:      Singlet-A     13.7612 eV   90.10 nm  f=0.0000  <S**2>=0.000
       3 ->  7         0.16315
       3 ->  8        -0.47249
       4 ->  7         0.47275
       4 ->  8         0.16322

 Excited State  13:      Singlet-A     13.9110 eV   89.13 nm  f=0.0761  <S**2>=0.000
       3 ->  7         0.31764
       3 ->  8         0.37520
       4 ->  7         0.37505
       4 ->  8        -0.31770

 Excited State  14:      Singlet-A     13.9110 eV   89.13 nm  f=0.0761  <S**2>=0.000
       3 ->  7         0.37516
       3 ->  8        -0.31778
       4 ->  7        -0.31757
       4 ->  8        -0.37509

 Excited State  15:      Singlet-A     15.2075 eV   81.53 nm  f=0.0003  <S**2>=0.000
       3 ->  7         0.28834
       4 ->  8         0.28833
       5 -> 11         0.11610
       5 -> 15         0.51456

 Excited State  16:      Singlet-A     15.3880 eV   80.57 nm  f=0.0000  <S**2>=0.000
       3 ->  9        -0.44283
       4 -> 10         0.44288
       5 -> 16        -0.32782

 Excited State  17:      Singlet-A     15.4613 eV   80.19 nm  f=0.0000  <S**2>=0.000
       3 ->  9        -0.23175
       4 -> 10         0.23177
       5 -> 16         0.62649

 Excited State  18:      Singlet-A     15.5272 eV   79.85 nm  f=0.0488  <S**2>=0.000
       3 ->  7        -0.23440
       3 -> 10        -0.27992
       4 ->  8        -0.23441
       4 ->  9        -0.28000
       5 -> 15         0.43500

 Excited State  19:      Singlet-A     15.6057 eV   79.45 nm  f=0.0227  <S**2>=0.000
       3 ->  7        -0.21550
       3 -> 10         0.40405
       4 ->  8        -0.21548
       4 ->  9         0.40417
       5 -> 15         0.20908

 Excited State  20:      Singlet-A     15.7439 eV   78.75 nm  f=0.0260  <S**2>=0.000
       3 -> 10        -0.27268
       4 ->  9         0.27261
       4 -> 11         0.54759
       5 -> 17        -0.19678

 Excited State  21:      Singlet-A     15.7440 eV   78.75 nm  f=0.0260  <S**2>=0.000
       3 ->  9        -0.27267
       3 -> 11         0.54756
       4 -> 10        -0.27264
       5 -> 18         0.19682

 Excited State  22:      Singlet-A     15.9682 eV   77.64 nm  f=0.1874  <S**2>=0.000
       3 -> 10         0.27785
       4 ->  9        -0.27777
       4 -> 11         0.43064
       5 -> 17         0.37623

 Excited State  23:      Singlet-A     15.9682 eV   77.64 nm  f=0.1874  <S**2>=0.000
       3 ->  9         0.27782
       3 -> 11         0.43068
       4 -> 10         0.27779
       5 -> 18        -0.37620

 Excited State  24:      Singlet-A     16.3659 eV   75.76 nm  f=0.1299  <S**2>=0.000
       3 -> 10        -0.26090
       4 ->  9         0.26082
       4 -> 12         0.17934
       5 -> 17         0.53420

 Excited State  25:      Singlet-A     16.3660 eV   75.76 nm  f=0.1299  <S**2>=0.000
       3 ->  9         0.26088
       3 -> 12        -0.17934
       4 -> 10         0.26085
       5 -> 18         0.53421

 Excited State  26:      Singlet-A     17.0672 eV   72.64 nm  f=0.0052  <S**2>=0.000
       3 -> 13        -0.45554
       3 -> 14        -0.13728
       4 -> 12         0.21335
       4 -> 13        -0.13749
       4 -> 14         0.45554

 Excited State  27:      Singlet-A     17.0672 eV   72.64 nm  f=0.0052  <S**2>=0.000
       3 -> 12        -0.21316
       3 -> 13        -0.13737
       3 -> 14         0.45517
       4 -> 13         0.45599
       4 -> 14         0.13744

 Excited State  28:      Singlet-A     17.1185 eV   72.43 nm  f=0.0000  <S**2>=0.000
       3 -> 14         0.49833
       4 -> 13        -0.49750

 Excited State  29:      Singlet-A     17.3094 eV   71.63 nm  f=0.1036  <S**2>=0.000
       3 -> 13         0.13377
       4 -> 12         0.63684
       4 -> 14        -0.13387
       5 -> 20        -0.11247

 Excited State  30:      Singlet-A     17.3095 eV   71.63 nm  f=0.1036  <S**2>=0.000
       3 -> 12         0.63690
       3 -> 14         0.13369
       4 -> 13         0.13371
       5 -> 19        -0.11247

 Excited State  31:      Singlet-A     17.4642 eV   70.99 nm  f=0.2755  <S**2>=0.000
       3 -> 13         0.48601
       4 -> 14         0.48595
       5 -> 21         0.10860

 Excited State  32:      Singlet-A     18.6490 eV   66.48 nm  f=0.0986  <S**2>=0.000
       5 -> 19        -0.23154
       5 -> 20         0.64677

 Excited State  33:      Singlet-A     18.6490 eV   66.48 nm  f=0.0986  <S**2>=0.000
       5 -> 19         0.64677
       5 -> 20         0.23154

 Excited State  34:      Singlet-A     20.6855 eV   59.94 nm  f=0.0043  <S**2>=0.000
       3 -> 15         0.43198
       4 -> 16         0.55504

 Excited State  35:      Singlet-A     20.6856 eV   59.94 nm  f=0.0043  <S**2>=0.000
       3 -> 16         0.55438
       4 -> 15        -0.43280

 Excited State  36:      Singlet-A     20.7303 eV   59.81 nm  f=0.0343  <S**2>=0.000
       3 -> 16         0.43625
       4 -> 15         0.54274

 Excited State  37:      Singlet-A     20.7303 eV   59.81 nm  f=0.0344  <S**2>=0.000
       3 -> 15         0.54339
       4 -> 16        -0.43541

 Excited State  38:      Singlet-A     20.9240 eV   59.25 nm  f=0.1958  <S**2>=0.000
       2 ->  6         0.25214
       3 -> 18        -0.19212
       4 -> 17         0.19228
       5 -> 21         0.58817

 Excited State  39:      Singlet-A     20.9596 eV   59.15 nm  f=0.0544  <S**2>=0.000
       3 -> 17         0.16248
       4 -> 18        -0.16249
       5 -> 22         0.66096

 Excited State  40:      Singlet-A     20.9596 eV   59.15 nm  f=0.0543  <S**2>=0.000
       3 -> 18        -0.16257
       4 -> 17        -0.16240
       5 -> 23         0.66096

 Excited State  41:      Singlet-A     21.3479 eV   58.08 nm  f=0.0000  <S**2>=0.000
       3 -> 17         0.48227
       3 -> 18        -0.13178
       4 -> 17         0.13178
       4 -> 18         0.48229

 Excited State  42:      Singlet-A     21.5184 eV   57.62 nm  f=0.0762  <S**2>=0.000
       2 ->  6         0.56301
       3 -> 18        -0.15177
       4 -> 17         0.15180
       5 -> 21        -0.31811

 Excited State  43:      Singlet-A     21.9302 eV   56.54 nm  f=0.2066  <S**2>=0.000
       3 -> 17         0.44794
       4 -> 18        -0.44791
       5 -> 22        -0.18746

 Excited State  44:      Singlet-A     21.9302 eV   56.54 nm  f=0.2066  <S**2>=0.000
       3 -> 18         0.44794
       4 -> 17         0.44791
       5 -> 23         0.18747

 Excited State  45:      Singlet-A     23.6696 eV   52.38 nm  f=0.1415  <S**2>=0.000
       2 ->  6         0.27446
       2 -> 11         0.10782
       2 -> 15         0.10483
       3 -> 18         0.36524
       3 -> 22         0.13360
       4 -> 17        -0.36525
       4 -> 23         0.13361
       5 -> 21         0.13355
       5 -> 27         0.10120

 Excited State  46:      Singlet-A     23.7006 eV   52.31 nm  f=0.0529  <S**2>=0.000
       2 ->  7         0.64927
       3 -> 20        -0.15878
       4 -> 19        -0.15887

 Excited State  47:      Singlet-A     23.7006 eV   52.31 nm  f=0.0529  <S**2>=0.000
       2 ->  8         0.64927
       3 -> 19        -0.15885
       4 -> 20         0.15880

 Excited State  48:      Singlet-A     23.8440 eV   52.00 nm  f=0.0000  <S**2>=0.000
       3 -> 20        -0.49824
       4 -> 19         0.49826

 Excited State  49:      Singlet-A     24.1151 eV   51.41 nm  f=0.0218  <S**2>=0.000
       2 ->  7         0.23187
       3 -> 19        -0.17817
       3 -> 20         0.40704
       3 -> 23        -0.10210
       4 -> 19         0.40698
       4 -> 20         0.17817
       4 -> 22        -0.10210

 Excited State  50:      Singlet-A     24.1151 eV   51.41 nm  f=0.0218  <S**2>=0.000
       2 ->  8        -0.23187
       3 -> 19        -0.40698
       3 -> 20        -0.17818
       3 -> 22         0.10209
       4 -> 19        -0.17815
       4 -> 20         0.40704
       4 -> 23        -0.10210

 Excited State  51:      Singlet-A     24.4407 eV   50.73 nm  f=0.0685  <S**2>=0.000
       2 ->  6        -0.12858
       3 -> 19         0.47037
       4 -> 20         0.47032

 Excited State  52:      Singlet-A     25.2668 eV   49.07 nm  f=0.0031  <S**2>=0.000
       2 ->  9         0.70310

 Excited State  53:      Singlet-A     25.2668 eV   49.07 nm  f=0.0031  <S**2>=0.000
       2 -> 10         0.70310

 Excited State  54:      Singlet-A     25.5952 eV   48.44 nm  f=0.0203  <S**2>=0.000
       2 -> 11         0.67577
       3 -> 22        -0.11857
       4 -> 23        -0.11857

 Excited State  55:      Singlet-A     25.8184 eV   48.02 nm  f=0.0002  <S**2>=0.000
       3 -> 22        -0.15866
       4 -> 21         0.66749
       4 -> 23         0.15868

 Excited State  56:      Singlet-A     25.8185 eV   48.02 nm  f=0.0002  <S**2>=0.000
       3 -> 21         0.66750
       3 -> 23        -0.15864
       4 -> 22        -0.15868

 Excited State  57:      Singlet-A     26.1625 eV   47.39 nm  f=0.0000  <S**2>=0.000
       3 -> 23        -0.49983
       4 -> 22         0.49984

 Excited State  58:      Singlet-A     26.4735 eV   46.83 nm  f=0.0070  <S**2>=0.000
       2 -> 12        -0.29681
       5 -> 24         0.62942

 Excited State  59:      Singlet-A     26.7824 eV   46.29 nm  f=0.2473  <S**2>=0.000
       2 -> 12         0.38952
       3 -> 22         0.37734
       4 -> 23         0.37745

 Excited State  60:      Singlet-A     26.7886 eV   46.28 nm  f=0.0203  <S**2>=0.000
       2 -> 13         0.68856
       3 -> 23         0.10032
       4 -> 22         0.10031

 Excited State  61:      Singlet-A     26.7887 eV   46.28 nm  f=0.0203  <S**2>=0.000
       2 -> 14         0.68855
       3 -> 22         0.10048
       4 -> 23        -0.10017

 Excited State  62:      Singlet-A     27.2464 eV   45.50 nm  f=0.4015  <S**2>=0.000
       2 -> 14         0.15282
       3 -> 22        -0.42557
       4 -> 21        -0.19735
       4 -> 23         0.42555

 Excited State  63:      Singlet-A     27.2465 eV   45.50 nm  f=0.4015  <S**2>=0.000
       2 -> 13        -0.15281
       3 -> 21         0.19734
       3 -> 23         0.42558
       4 -> 22         0.42555

 Excited State  64:      Singlet-A     27.4211 eV   45.21 nm  f=0.1245  <S**2>=0.000
       2 -> 11        -0.11870
       2 -> 12         0.49601
       3 -> 22        -0.25225
       4 -> 23        -0.25223
       5 -> 24         0.29625

 Excited State  65:      Singlet-A     30.3794 eV   40.81 nm  f=0.0000  <S**2>=0.000
       2 -> 16         0.70708

 Excited State  66:      Singlet-A     30.8430 eV   40.20 nm  f=0.0034  <S**2>=0.000
       2 -> 17         0.13520
       5 -> 25         0.68563

 Excited State  67:      Singlet-A     30.8430 eV   40.20 nm  f=0.0034  <S**2>=0.000
       2 -> 18         0.13520
       5 -> 26         0.68563

 Excited State  68:      Singlet-A     30.8571 eV   40.18 nm  f=0.0377  <S**2>=0.000
       2 -> 15         0.66780
       5 -> 27        -0.16926

 Excited State  69:      Singlet-A     31.3987 eV   39.49 nm  f=0.0006  <S**2>=0.000
       2 -> 17         0.64612
       4 -> 24         0.20970
       5 -> 25        -0.15751

 Excited State  70:      Singlet-A     31.3987 eV   39.49 nm  f=0.0006  <S**2>=0.000
       2 -> 18         0.64612
       3 -> 24        -0.20969
       5 -> 26        -0.15751

 Excited State  71:      Singlet-A     32.7182 eV   37.89 nm  f=0.1263  <S**2>=0.000
       2 -> 17        -0.21738
       2 -> 20        -0.19884
       4 -> 24         0.62297

 Excited State  72:      Singlet-A     32.7183 eV   37.89 nm  f=0.1263  <S**2>=0.000
       2 -> 18         0.21737
       2 -> 19        -0.19885
       3 -> 24         0.62297

 Excited State  73:      Singlet-A     33.7163 eV   36.77 nm  f=0.0018  <S**2>=0.000
       2 -> 19        -0.12468
       2 -> 20         0.66308
       4 -> 24         0.16911

 Excited State  74:      Singlet-A     33.7163 eV   36.77 nm  f=0.0018  <S**2>=0.000
       2 -> 19         0.66307
       2 -> 20         0.12468
       3 -> 24         0.16912

 Excited State  75:      Singlet-A     34.9200 eV   35.51 nm  f=0.0182  <S**2>=0.000
       3 -> 26        -0.26108
       4 -> 25         0.26109
       5 -> 27         0.57103

 Excited State  76:      Singlet-A     35.6898 eV   34.74 nm  f=0.0246  <S**2>=0.000
       2 -> 21         0.69654

 Excited State  77:      Singlet-A     36.0979 eV   34.35 nm  f=0.0000  <S**2>=0.000
       3 -> 25         0.48386
       3 -> 26        -0.12575
       4 -> 25         0.12577
       4 -> 26         0.48389

 Excited State  78:      Singlet-A     36.1218 eV   34.32 nm  f=0.0130  <S**2>=0.000
       2 -> 22         0.69972

 Excited State  79:      Singlet-A     36.1219 eV   34.32 nm  f=0.0130  <S**2>=0.000
       2 -> 23         0.69972

 Excited State  80:      Singlet-A     36.7862 eV   33.70 nm  f=0.0423  <S**2>=0.000
       3 -> 25         0.47389
       4 -> 26        -0.47387
       5 -> 29        -0.11598

 Excited State  81:      Singlet-A     36.7863 eV   33.70 nm  f=0.0423  <S**2>=0.000
       3 -> 26         0.47388
       4 -> 25         0.47388
       5 -> 28         0.11599

 Excited State  82:      Singlet-A     38.6708 eV   32.06 nm  f=0.0209  <S**2>=0.000
       4 -> 27         0.67025
       5 -> 28        -0.21852

 Excited State  83:      Singlet-A     38.6709 eV   32.06 nm  f=0.0209  <S**2>=0.000
       3 -> 27         0.67024
       5 -> 29        -0.21854

 Excited State  84:      Singlet-A     38.9290 eV   31.85 nm  f=0.0126  <S**2>=0.000
       2 -> 24         0.33829
       3 -> 26         0.34292
       3 -> 29         0.11152
       4 -> 25        -0.34291
       4 -> 28         0.11152
       5 -> 27         0.27675

 Excited State  85:      Singlet-A     39.0297 eV   31.77 nm  f=0.0480  <S**2>=0.000
       4 -> 27         0.22315
       5 -> 28         0.65653

 Excited State  86:      Singlet-A     39.0297 eV   31.77 nm  f=0.0480  <S**2>=0.000
       3 -> 27         0.22316
       5 -> 29         0.65652

 Excited State  87:      Singlet-A     42.6094 eV   29.10 nm  f=0.0005  <S**2>=0.000
       2 -> 24         0.38197
       3 -> 29        -0.17982
       4 -> 28        -0.17983
       5 -> 30         0.52176

 Excited State  88:      Singlet-A     42.9594 eV   28.86 nm  f=0.0931  <S**2>=0.000
       2 -> 24        -0.41886
       3 -> 26         0.10850
       3 -> 29         0.17044
       4 -> 25        -0.10850
       4 -> 28         0.17046
       5 -> 30         0.47327

 Excited State  89:      Singlet-A     44.0790 eV   28.13 nm  f=0.0000  <S**2>=0.000
       3 -> 28        -0.49531
       4 -> 29         0.49532

 Excited State  90:      Singlet-A     44.4909 eV   27.87 nm  f=0.0279  <S**2>=0.000
       3 -> 28         0.45123
       3 -> 29        -0.20341
       4 -> 28         0.20340
       4 -> 29         0.45122

 Excited State  91:      Singlet-A     44.4909 eV   27.87 nm  f=0.0279  <S**2>=0.000
       3 -> 28         0.20340
       3 -> 29         0.45123
       4 -> 28        -0.45122
       4 -> 29         0.20341

 Excited State  92:      Singlet-A     46.2744 eV   26.79 nm  f=0.0466  <S**2>=0.000
       2 -> 25         0.70335

 Excited State  93:      Singlet-A     46.2745 eV   26.79 nm  f=0.0466  <S**2>=0.000
       2 -> 26         0.70335

 Excited State  94:      Singlet-A     47.5989 eV   26.05 nm  f=0.0224  <S**2>=0.000
       2 -> 24         0.23178
       2 -> 27         0.19035
       2 -> 30        -0.11862
       3 -> 26        -0.12108
       3 -> 29         0.39049
       4 -> 25         0.12108
       4 -> 28         0.39050
       5 -> 27        -0.16661

 Excited State  95:      Singlet-A     48.1153 eV   25.77 nm  f=0.0001  <S**2>=0.000
       4 -> 30         0.70231

 Excited State  96:      Singlet-A     48.1154 eV   25.77 nm  f=0.0001  <S**2>=0.000
       3 -> 30         0.70231

 Excited State  97:      Singlet-A     48.7309 eV   25.44 nm  f=0.1337  <S**2>=0.000
       2 -> 27         0.67968
       3 -> 29        -0.10273
       4 -> 28        -0.10273

 Excited State  98:      Singlet-A     50.9556 eV   24.33 nm  f=0.0000  <S**2>=0.000
       5 -> 31         0.70705

 Excited State  99:      Singlet-A     51.5949 eV   24.03 nm  f=0.0474  <S**2>=0.000
       5 -> 32         0.69487

 Excited State 100:      Singlet-A     51.5950 eV   24.03 nm  f=0.0474  <S**2>=0.000
       5 -> 33         0.69487

 Excited State 101:      Singlet-A     54.1381 eV   22.90 nm  f=0.0414  <S**2>=0.000
       2 -> 28         0.69419

 Excited State 102:      Singlet-A     54.1381 eV   22.90 nm  f=0.0414  <S**2>=0.000
       2 -> 29         0.69419

 Excited State 103:      Singlet-A     56.5559 eV   21.92 nm  f=0.0123  <S**2>=0.000
       3 -> 32        -0.17094
       4 -> 33        -0.17091
       5 -> 34         0.65662

 Excited State 104:      Singlet-A     56.6240 eV   21.90 nm  f=0.0000  <S**2>=0.000
       3 -> 33         0.49820
       4 -> 32        -0.49815

 Excited State 105:      Singlet-A     56.6433 eV   21.89 nm  f=0.0210  <S**2>=0.000
       4 -> 31         0.68536

 Excited State 106:      Singlet-A     56.6433 eV   21.89 nm  f=0.0210  <S**2>=0.000
       3 -> 31         0.68536

 Excited State 107:      Singlet-A     57.0333 eV   21.74 nm  f=0.0970  <S**2>=0.000
       3 -> 32        -0.15802
       3 -> 33         0.45752
       4 -> 31        -0.12166
       4 -> 32         0.45732
       4 -> 33         0.15800

 Excited State 108:      Singlet-A     57.0334 eV   21.74 nm  f=0.0971  <S**2>=0.000
       3 -> 31         0.12166
       3 -> 32         0.45742
       3 -> 33         0.15805
       4 -> 32         0.15798
       4 -> 33        -0.45742

 Excited State 109:      Singlet-A     57.5602 eV   21.54 nm  f=0.2566  <S**2>=0.000
       2 -> 30        -0.25706
       3 -> 32         0.42439
       4 -> 33         0.42438
       5 -> 34         0.24177

 Excited State 110:      Singlet-A     58.8841 eV   21.06 nm  f=0.0383  <S**2>=0.000
       3 -> 34        -0.10519
       5 -> 35         0.69145

 Excited State 111:      Singlet-A     58.8842 eV   21.06 nm  f=0.0383  <S**2>=0.000
       4 -> 34        -0.10520
       5 -> 36         0.69145

 Excited State 112:      Singlet-A     59.2663 eV   20.92 nm  f=0.1171  <S**2>=0.000
       2 -> 30         0.63569
       3 -> 32         0.18623
       4 -> 33         0.18622

 Excited State 113:      Singlet-A     61.5880 eV   20.13 nm  f=0.0215  <S**2>=0.000
       4 -> 34         0.69332

 Excited State 114:      Singlet-A     61.5881 eV   20.13 nm  f=0.0215  <S**2>=0.000
       3 -> 34         0.69332

 Excited State 115:      Singlet-A     62.9296 eV   19.70 nm  f=0.0061  <S**2>=0.000
       3 -> 35        -0.17399
       4 -> 36         0.17399
       5 -> 37         0.65830

 Excited State 116:      Singlet-A     62.9296 eV   19.70 nm  f=0.0061  <S**2>=0.000
       3 -> 36         0.17398
       4 -> 35         0.17401
       5 -> 38         0.65829

 Excited State 117:      Singlet-A     64.2918 eV   19.28 nm  f=0.0001  <S**2>=0.000
       3 -> 36        -0.47699
       4 -> 35         0.50827

 Excited State 118:      Singlet-A     64.2942 eV   19.28 nm  f=0.0718  <S**2>=0.000
       3 -> 35        -0.44028
       3 -> 36        -0.14225
       4 -> 35        -0.13216
       4 -> 36         0.44156
       5 -> 37        -0.21504

 Excited State 119:      Singlet-A     64.2942 eV   19.28 nm  f=0.0717  <S**2>=0.000
       3 -> 35        -0.13970
       3 -> 36         0.45658
       4 -> 35         0.42475
       4 -> 36         0.13487
       5 -> 38        -0.21492

 Excited State 120:      Singlet-A     64.3923 eV   19.25 nm  f=0.0012  <S**2>=0.000
       3 -> 35         0.49041
       4 -> 36         0.49063

 The electronic state is 1-A.
 Alpha  occ. eigenvalues --  -13.97657  -0.76857  -0.41622  -0.41622  -0.22226
 Alpha virt. eigenvalues --    0.00807   0.08938   0.08938   0.15368   0.15368
 Alpha virt. eigenvalues --    0.16468   0.21238   0.21301   0.21301   0.34028
 Alpha virt. eigenvalues --    0.34881   0.36829   0.36829   0.46224   0.46224

 Mulliken charges:
               1
     1  N    0.123308
     2  H   -0.041103
     3  H   -0.041104
     4  H   -0.041101
 Sum of Mulliken charges =   0.00000

 Dipole moment (field-independent basis, Debye):
    X=              0.0000    Y=             -0.0000    Z=              1.4715  Tot=              1.4715
 Quadrupole moment (field-independent basis, Debye-Ang):
   XX=             -6.4256   YY=             -6.4256   ZZ=             -9.3179
   XY=              0.0000   XZ=             -0.0001   YZ=              0.0000

 Normal termination of Gaussian 16 at Mon Mar 21 20:19:54 2022.
