 Gaussian 16, Revision C.01,
 Gaussian 16:  EM64L-G16RevC.01  3-Jul-2019

 ----------------------------------------------------------------------
 #P TD(Nstates=10000) pbepbe/Gen SCF(maxcycles=100) Int(Grid=ultrafine)
 ----------------------------------------------------------------------

 ---------------------
 xGDB7_00001_tier4.com
 ---------------------
 Symbolic Z-matrix:
 Charge =  0 Multiplicity = 1

                         Standard orientation:
 ---------------------------------------------------------------------
 Center     Atomic      Atomic             Coordinates (Angstroms)
 Number     Number       Type             X           Y           Z
 ---------------------------------------------------------------------
      1          6           0        0.037922   -0.393776    0.738519
      2          6           0        0.037922   -0.393776   -0.738519
      3          7           0        0.037922    0.865964    0.000000
      4          1           0        0.953211   -0.606479    1.276872
      5          1           0       -0.870248   -0.700655    1.244917
      6          1           0       -0.870248   -0.700655   -1.244917
      7          1           0        0.953211   -0.606479   -1.276872
      8          1           0       -0.886454    1.277834    0.000000
 ---------------------------------------------------------------------

 SCF Done:  E(RPBE-PBE) =  -133.659851841     A.U. after   12 cycles

 Excitation energies and oscillator strengths:

 Excited State   1:      Singlet-A'     6.0167 eV  206.07 nm  f=0.0028  <S**2>=0.000
      12 -> 13         0.70598
 This state for optimization and/or second-order correction.
 Total Energy, E(TD-HF/TD-DFT) =  -133.438740988
 Copying the excited state density for this state as the 1-particle RhoCI density.

 Excited State   2:      Singlet-A"     6.7500 eV  183.68 nm  f=0.0026  <S**2>=0.000
      12 -> 15         0.70671

 Excited State   3:      Singlet-A'     6.7850 eV  182.73 nm  f=0.0261  <S**2>=0.000
      12 -> 14         0.70551

 Excited State   4:      Singlet-A'     7.5668 eV  163.85 nm  f=0.0773  <S**2>=0.000
      12 -> 16         0.70376

 Excited State   5:      Singlet-A"     8.3289 eV  148.86 nm  f=0.0312  <S**2>=0.000
      12 -> 17         0.69444

 Excited State   6:      Singlet-A'     8.3773 eV  148.00 nm  f=0.0059  <S**2>=0.000
      11 -> 13         0.70441

 Excited State   7:      Singlet-A'     8.6245 eV  143.76 nm  f=0.0055  <S**2>=0.000
      12 -> 18         0.70278

 Excited State   8:      Singlet-A"     8.7371 eV  141.91 nm  f=0.0015  <S**2>=0.000
      10 -> 13         0.70273

 Excited State   9:      Singlet-A"     9.1287 eV  135.82 nm  f=0.0114  <S**2>=0.000
      12 -> 19         0.70142

 Excited State  10:      Singlet-A"     9.1526 eV  135.46 nm  f=0.0429  <S**2>=0.000
       9 -> 13         0.14256
      11 -> 15         0.68038

 Excited State  11:      Singlet-A'     9.1592 eV  135.37 nm  f=0.0311  <S**2>=0.000
      11 -> 14         0.69902

 Excited State  12:      Singlet-A"     9.2563 eV  133.95 nm  f=0.0221  <S**2>=0.000
       9 -> 13         0.68776
      11 -> 15        -0.13589

 Excited State  13:      Singlet-A'     9.5081 eV  130.40 nm  f=0.0086  <S**2>=0.000
      10 -> 15         0.60184
      12 -> 20        -0.36725

 Excited State  14:      Singlet-A"     9.5101 eV  130.37 nm  f=0.0554  <S**2>=0.000
      10 -> 14         0.69563

 Excited State  15:      Singlet-A'     9.5426 eV  129.93 nm  f=0.0397  <S**2>=0.000
      10 -> 15         0.36087
      12 -> 20         0.59519

 Excited State  16:      Singlet-A'     9.8939 eV  125.31 nm  f=0.0202  <S**2>=0.000
      11 -> 16         0.70026

 Excited State  17:      Singlet-A"     9.9832 eV  124.19 nm  f=0.0076  <S**2>=0.000
       9 -> 14         0.69985

 Excited State  18:      Singlet-A'    10.0567 eV  123.28 nm  f=0.0717  <S**2>=0.000
       9 -> 15         0.70404

 Excited State  19:      Singlet-A"    10.1892 eV  121.68 nm  f=0.0002  <S**2>=0.000
      10 -> 16         0.31380
      11 -> 17        -0.12482
      12 -> 21         0.61721

 Excited State  20:      Singlet-A"    10.2288 eV  121.21 nm  f=0.0021  <S**2>=0.000
      10 -> 16         0.61391
      12 -> 21        -0.31919

 Excited State  21:      Singlet-A"    10.4249 eV  118.93 nm  f=0.0018  <S**2>=0.000
      12 -> 22         0.69882

 Excited State  22:      Singlet-A'    10.6342 eV  116.59 nm  f=0.0007  <S**2>=0.000
      10 -> 17        -0.11172
      12 -> 23         0.66605
      12 -> 24        -0.18611

 Excited State  23:      Singlet-A"    10.8544 eV  114.22 nm  f=0.2102  <S**2>=0.000
       9 -> 16         0.65056
      11 -> 17        -0.23402

 Excited State  24:      Singlet-A'    10.9318 eV  113.42 nm  f=0.0378  <S**2>=0.000
      10 -> 17        -0.31870
      11 -> 18         0.41711
      12 -> 24         0.45238

 Excited State  25:      Singlet-A"    10.9985 eV  112.73 nm  f=0.0409  <S**2>=0.000
       9 -> 16         0.24575
      10 -> 16         0.11826
      11 -> 17         0.59215
      11 -> 19        -0.12053
      12 -> 26        -0.11430

 Excited State  26:      Singlet-A'    11.0339 eV  112.37 nm  f=0.0106  <S**2>=0.000
      10 -> 17         0.18192
      11 -> 18         0.56043
      12 -> 24        -0.37004

 Excited State  27:      Singlet-A'    11.2777 eV  109.94 nm  f=0.0043  <S**2>=0.000
       9 -> 17         0.65970
      10 -> 17         0.15104
      12 -> 24         0.13259
      12 -> 25         0.12586

 Excited State  28:      Singlet-A"    11.3243 eV  109.49 nm  f=0.0004  <S**2>=0.000
      10 -> 18         0.70327

 Excited State  29:      Singlet-A'    11.3586 eV  109.15 nm  f=0.0070  <S**2>=0.000
       9 -> 17        -0.15565
      12 -> 25         0.68085

 Excited State  30:      Singlet-A"    11.5044 eV  107.77 nm  f=0.0075  <S**2>=0.000
      11 -> 19         0.69142

 Excited State  31:      Singlet-A'    11.5472 eV  107.37 nm  f=0.0309  <S**2>=0.000
       9 -> 17        -0.16520
      10 -> 17         0.43170
      11 -> 20         0.35058
      12 -> 23         0.12945
      12 -> 24         0.23077
      12 -> 27        -0.22920

 Excited State  32:      Singlet-A'    11.8039 eV  105.04 nm  f=0.0099  <S**2>=0.000
       8 -> 13         0.65705
      10 -> 19         0.24473

 Excited State  33:      Singlet-A'    11.8573 eV  104.56 nm  f=0.0274  <S**2>=0.000
       8 -> 13        -0.23624
      10 -> 19         0.65358
      11 -> 20        -0.10335

 Excited State  34:      Singlet-A"    11.9052 eV  104.14 nm  f=0.0030  <S**2>=0.000
       9 -> 18         0.69849

 Excited State  35:      Singlet-A"    12.0294 eV  103.07 nm  f=0.0464  <S**2>=0.000
      12 -> 26         0.67550

 Excited State  36:      Singlet-A'    12.1040 eV  102.43 nm  f=0.0114  <S**2>=0.000
       9 -> 19        -0.21089
      10 -> 17        -0.14355
      11 -> 20         0.51835
      12 -> 24        -0.13135
      12 -> 27         0.30662

 Excited State  37:      Singlet-A"    12.1939 eV  101.68 nm  f=0.0038  <S**2>=0.000
      10 -> 20         0.69748

 Excited State  38:      Singlet-A'    12.3980 eV  100.00 nm  f=0.0476  <S**2>=0.000
       8 -> 14         0.38832
      10 -> 17         0.16085
      10 -> 21         0.11623
      11 -> 20        -0.13286
      12 -> 27         0.44576
      12 -> 28        -0.21890

 Excited State  39:      Singlet-A'    12.4943 eV   99.23 nm  f=0.0214  <S**2>=0.000
       7 -> 13         0.11778
       8 -> 14        -0.27376
       9 -> 19         0.54198
      10 -> 21         0.19462
      12 -> 27         0.21238

 Excited State  40:      Singlet-A"    12.5711 eV   98.63 nm  f=0.0145  <S**2>=0.000
       8 -> 15        -0.46071
      11 -> 21         0.51934

 Excited State  41:      Singlet-A"    12.5881 eV   98.49 nm  f=0.0814  <S**2>=0.000
       8 -> 15         0.52713
      11 -> 21         0.44809

 Excited State  42:      Singlet-A"    12.6813 eV   97.77 nm  f=0.0121  <S**2>=0.000
       9 -> 20         0.66759
      11 -> 22         0.20797

 Excited State  43:      Singlet-A'    12.6916 eV   97.69 nm  f=0.2248  <S**2>=0.000
       8 -> 14         0.49993
       8 -> 16         0.10303
       9 -> 19         0.29890
      11 -> 20         0.12071
      11 -> 25        -0.10938
      12 -> 27        -0.14236
      12 -> 28         0.22973

 Excited State  44:      Singlet-A"    12.8451 eV   96.52 nm  f=0.0258  <S**2>=0.000
       9 -> 20        -0.18872
      11 -> 22         0.65527

 Excited State  45:      Singlet-A'    12.8930 eV   96.16 nm  f=0.0262  <S**2>=0.000
      10 -> 17         0.10497
      11 -> 23        -0.33901
      11 -> 24        -0.13043
      12 -> 27         0.16988
      12 -> 28         0.52220

 Excited State  46:      Singlet-A'    12.9720 eV   95.58 nm  f=0.0374  <S**2>=0.000
       7 -> 13        -0.11116
      10 -> 21         0.19921
      11 -> 23         0.56042
      12 -> 28         0.28265

 Excited State  47:      Singlet-A'    13.0423 eV   95.06 nm  f=0.0131  <S**2>=0.000
       7 -> 13        -0.33547
       8 -> 16        -0.14143
      10 -> 21         0.52300
      11 -> 23        -0.21643
      11 -> 24         0.10621
      12 -> 27        -0.10142

 Excited State  48:      Singlet-A"    13.1493 eV   94.29 nm  f=0.0020  <S**2>=0.000
      12 -> 29         0.69019

 Excited State  49:      Singlet-A'    13.1588 eV   94.22 nm  f=0.0026  <S**2>=0.000
      10 -> 22         0.66648
      11 -> 24        -0.20719

 Excited State  50:      Singlet-A'    13.2666 eV   93.46 nm  f=0.0432  <S**2>=0.000
       7 -> 13        -0.33767
       8 -> 16         0.36701
       9 -> 21        -0.12085
      10 -> 21        -0.13813
      11 -> 24         0.42393

 Excited State  51:      Singlet-A"    13.2775 eV   93.38 nm  f=0.0071  <S**2>=0.000
      10 -> 23         0.70019

 Excited State  52:      Singlet-A'    13.3350 eV   92.98 nm  f=0.0137  <S**2>=0.000
       7 -> 13         0.27414
       8 -> 16        -0.19448
       9 -> 21         0.33128
       9 -> 22        -0.13004
      10 -> 22         0.14174
      11 -> 24         0.44201

 Excited State  53:      Singlet-A'    13.4635 eV   92.09 nm  f=0.0437  <S**2>=0.000
       8 -> 16         0.27349
       9 -> 21         0.54397
       9 -> 22         0.28613
      11 -> 24        -0.11885
      11 -> 25        -0.10683

 Excited State  54:      Singlet-A"    13.6253 eV   91.00 nm  f=0.0309  <S**2>=0.000
       8 -> 17        -0.14570
      10 -> 24         0.67413

 Excited State  55:      Singlet-A'    13.7360 eV   90.26 nm  f=0.0336  <S**2>=0.000
       7 -> 13         0.13893
       7 -> 14        -0.18860
      10 -> 21         0.10516
      12 -> 30         0.62354

 Excited State  56:      Singlet-A"    13.7855 eV   89.94 nm  f=0.0040  <S**2>=0.000
       8 -> 17         0.36274
       9 -> 23         0.57040
      10 -> 25         0.16961

 Excited State  57:      Singlet-A'    13.8048 eV   89.81 nm  f=0.0265  <S**2>=0.000
       7 -> 13        -0.11229
       7 -> 14         0.49010
       9 -> 22        -0.20111
      11 -> 25        -0.34261
      12 -> 30         0.23195

 Excited State  58:      Singlet-A'    13.8434 eV   89.56 nm  f=0.0358  <S**2>=0.000
       7 -> 13        -0.23288
       7 -> 16        -0.18312
       8 -> 16        -0.30899
       9 -> 19         0.15220
       9 -> 21         0.15628
      10 -> 21        -0.16050
      11 -> 20         0.10689
      11 -> 25         0.33890
      12 -> 30         0.20532

 Excited State  59:      Singlet-A"    13.9385 eV   88.95 nm  f=0.0129  <S**2>=0.000
       7 -> 15         0.57213
       8 -> 17         0.34699
       9 -> 23        -0.15815

 Excited State  60:      Singlet-A"    13.9466 eV   88.90 nm  f=0.0201  <S**2>=0.000
       7 -> 15        -0.38337
       8 -> 17         0.45306
       9 -> 23        -0.25510
       9 -> 24        -0.13600
      10 -> 25        -0.20397

 Excited State  61:      Singlet-A'    13.9512 eV   88.87 nm  f=0.1642  <S**2>=0.000
       8 -> 16        -0.20051
       8 -> 18         0.20051
       9 -> 21        -0.13807
       9 -> 22         0.50238
      10 -> 26         0.11545
      11 -> 24         0.11140
      11 -> 25        -0.25613

 Excited State  62:      Singlet-A"    14.0811 eV   88.05 nm  f=0.0084  <S**2>=0.000
       9 -> 24        -0.45170
      10 -> 25         0.48685
      12 -> 31         0.19965

 Excited State  63:      Singlet-A'    14.0972 eV   87.95 nm  f=0.2984  <S**2>=0.000
       7 -> 13         0.14135
       7 -> 14         0.43457
       8 -> 18         0.25187
       9 -> 22         0.10497
      10 -> 21         0.12887
      11 -> 25         0.35343
      12 -> 32         0.13969

 Excited State  64:      Singlet-A"    14.1444 eV   87.66 nm  f=0.0185  <S**2>=0.000
       9 -> 24         0.22198
      12 -> 31         0.64817

 Excited State  65:      Singlet-A"    14.3266 eV   86.54 nm  f=0.0002  <S**2>=0.000
      11 -> 26         0.68501

 Excited State  66:      Singlet-A"    14.4190 eV   85.99 nm  f=0.3556  <S**2>=0.000
       9 -> 23        -0.18570
       9 -> 24         0.39913
       9 -> 25         0.29149
      10 -> 25         0.35719
      11 -> 26         0.12374
      12 -> 31        -0.11136

 Excited State  67:      Singlet-A'    14.4228 eV   85.96 nm  f=0.0295  <S**2>=0.000
      11 -> 27         0.37381
      12 -> 32         0.56262

 Excited State  68:      Singlet-A'    14.5290 eV   85.34 nm  f=0.0772  <S**2>=0.000
       8 -> 18        -0.16713
      10 -> 26        -0.26266
      11 -> 27         0.52685
      12 -> 32        -0.29593

 Excited State  69:      Singlet-A'    14.5670 eV   85.11 nm  f=0.1073  <S**2>=0.000
       7 -> 16        -0.33352
       8 -> 18         0.46869
       9 -> 22        -0.11450
      10 -> 26        -0.32547

 Excited State  70:      Singlet-A"    14.7103 eV   84.28 nm  f=0.0775  <S**2>=0.000
       9 -> 23         0.10396
       9 -> 24        -0.16205
       9 -> 25         0.56678
      10 -> 25        -0.13091
      10 -> 27        -0.31817

 Excited State  71:      Singlet-A'    14.8135 eV   83.70 nm  f=0.0479  <S**2>=0.000
       7 -> 16        -0.20791
      10 -> 26         0.42133
      11 -> 27         0.11942
      12 -> 32        -0.12014
      12 -> 33         0.45909

 Excited State  72:      Singlet-A"    14.8808 eV   83.32 nm  f=0.0453  <S**2>=0.000
       8 -> 19        -0.27028
       9 -> 25         0.25013
      10 -> 27         0.57056

 Excited State  73:      Singlet-A'    14.9160 eV   83.12 nm  f=0.2252  <S**2>=0.000
       6 -> 15         0.11851
       7 -> 13        -0.11784
       7 -> 16         0.50642
       8 -> 18         0.29972
      11 -> 27         0.12658

 Excited State  74:      Singlet-A"    14.9975 eV   82.67 nm  f=0.0049  <S**2>=0.000
       6 -> 13         0.18885
       8 -> 19         0.62280
      10 -> 27         0.20470

 Excited State  75:      Singlet-A'    15.0373 eV   82.45 nm  f=0.2031  <S**2>=0.000
       6 -> 15         0.10405
       7 -> 16         0.13640
       7 -> 18        -0.13878
       8 -> 18        -0.12938
       9 -> 22         0.11950
      10 -> 26        -0.30185
      11 -> 27        -0.14913
      12 -> 33         0.50195

 Excited State  76:      Singlet-A'    15.1703 eV   81.73 nm  f=0.0199  <S**2>=0.000
       9 -> 26         0.19615
      11 -> 28         0.65629

 Excited State  77:      Singlet-A"    15.2088 eV   81.52 nm  f=0.0047  <S**2>=0.000
       7 -> 17         0.55589
       9 -> 27         0.18548
      12 -> 34         0.37139

 Excited State  78:      Singlet-A'    15.2354 eV   81.38 nm  f=0.0445  <S**2>=0.000
       8 -> 20         0.49187
       9 -> 26        -0.46297
      11 -> 28         0.17891

 Excited State  79:      Singlet-A"    15.2592 eV   81.25 nm  f=0.0515  <S**2>=0.000
       7 -> 17        -0.33683
       9 -> 27        -0.11830
      10 -> 28        -0.15301
      12 -> 34         0.57650

 Excited State  80:      Singlet-A"    15.3052 eV   81.01 nm  f=0.0226  <S**2>=0.000
       6 -> 13         0.57971
       8 -> 19        -0.11016
       9 -> 27        -0.30410
      10 -> 28         0.11537

 Excited State  81:      Singlet-A"    15.3397 eV   80.83 nm  f=0.0085  <S**2>=0.000
       6 -> 13         0.24549
       7 -> 17        -0.19751
       9 -> 27         0.54463
      10 -> 28         0.28329
      11 -> 29        -0.10770

 Excited State  82:      Singlet-A'    15.3626 eV   80.71 nm  f=0.2532  <S**2>=0.000
       8 -> 20         0.45561
       9 -> 26         0.44076
      10 -> 29         0.15898

 Excited State  83:      Singlet-A"    15.4960 eV   80.01 nm  f=0.0060  <S**2>=0.000
       6 -> 13        -0.13137
      10 -> 28         0.36366
      11 -> 29         0.56747

 Excited State  84:      Singlet-A"    15.7097 eV   78.92 nm  f=0.1377  <S**2>=0.000
       8 -> 21         0.12550
       9 -> 27        -0.16367
       9 -> 28        -0.14820
      10 -> 28         0.33646
      11 -> 29        -0.27549
      11 -> 31         0.10018
      12 -> 35         0.44168

 Excited State  85:      Singlet-A"    15.7440 eV   78.75 nm  f=0.0668  <S**2>=0.000
       6 -> 14         0.16080
       8 -> 21        -0.10335
       9 -> 27         0.12169
       9 -> 28         0.12580
      10 -> 28        -0.25434
      11 -> 29         0.19336
      11 -> 31        -0.10482
      12 -> 35         0.53097

 Excited State  86:      Singlet-A'    15.8639 eV   78.15 nm  f=0.1075  <S**2>=0.000
       6 -> 15         0.18195
       7 -> 18         0.61929
      10 -> 29         0.11838
      11 -> 30         0.12794
      12 -> 36         0.14565

 Excited State  87:      Singlet-A"    15.9554 eV   77.71 nm  f=0.0005  <S**2>=0.000
       6 -> 14         0.15985
       8 -> 21         0.42099
       9 -> 28         0.52140
      12 -> 37         0.10171

 Excited State  88:      Singlet-A"    16.0240 eV   77.37 nm  f=0.0023  <S**2>=0.000
       6 -> 14         0.58258
       7 -> 19         0.11134
       8 -> 21        -0.10544
       8 -> 22        -0.18511
      11 -> 31         0.12581
      12 -> 37        -0.23209

 Excited State  89:      Singlet-A"    16.0617 eV   77.19 nm  f=0.0802  <S**2>=0.000
       8 -> 21         0.49255
       8 -> 22         0.13783
       9 -> 28        -0.35537
      10 -> 28        -0.10910
      11 -> 31        -0.12167
      12 -> 37        -0.20597

 Excited State  90:      Singlet-A"    16.0835 eV   77.09 nm  f=0.0018  <S**2>=0.000
       6 -> 14         0.20936
       9 -> 28        -0.22347
      12 -> 37         0.62048

 Excited State  91:      Singlet-A'    16.0881 eV   77.07 nm  f=0.1253  <S**2>=0.000
       5 -> 13         0.10636
       6 -> 15         0.12353
       7 -> 18        -0.22762
       7 -> 20         0.11794
      10 -> 29         0.46745
      11 -> 30         0.19630
      12 -> 36         0.32243

 Excited State  92:      Singlet-A'    16.1161 eV   76.93 nm  f=0.0237  <S**2>=0.000
      10 -> 29        -0.15314
      11 -> 30         0.65451
      12 -> 36        -0.14861

 Excited State  93:      Singlet-A'    16.2066 eV   76.50 nm  f=0.0471  <S**2>=0.000
       5 -> 14        -0.13380
       6 -> 15         0.50388
       7 -> 18        -0.10204
      10 -> 29        -0.30686
      12 -> 36         0.24714

 Excited State  94:      Singlet-A'    16.2721 eV   76.19 nm  f=0.0711  <S**2>=0.000
       5 -> 13        -0.42297
       5 -> 14         0.10937
       6 -> 15        -0.24814
      10 -> 29        -0.12427
      12 -> 36         0.42481

 Excited State  95:      Singlet-A"    16.3027 eV   76.05 nm  f=0.0276  <S**2>=0.000
       7 -> 19         0.51700
       8 -> 22         0.43504
      10 -> 30        -0.10927

 Excited State  96:      Singlet-A"    16.3305 eV   75.92 nm  f=0.0000  <S**2>=0.000
       6 -> 14         0.10689
       7 -> 19        -0.40242
       8 -> 22         0.41279
      10 -> 30        -0.23692
      11 -> 31         0.26422

 Excited State  97:      Singlet-A'    16.3662 eV   75.76 nm  f=0.0729  <S**2>=0.000
       5 -> 13        -0.13946
       8 -> 23         0.65410
       9 -> 29        -0.14212

 Excited State  98:      Singlet-A'    16.4473 eV   75.38 nm  f=0.0185  <S**2>=0.000
       5 -> 13        -0.12345
       8 -> 23         0.12672
       9 -> 29         0.65456

 Excited State  99:      Singlet-A'    16.4781 eV   75.24 nm  f=0.0053  <S**2>=0.000
       5 -> 13         0.42601
       6 -> 15        -0.17840
       7 -> 20        -0.29784
       8 -> 23         0.17594
      10 -> 29        -0.12268
      10 -> 31        -0.11439
      12 -> 36         0.26479
      12 -> 38         0.16434

 Excited State 100:      Singlet-A"    16.4851 eV   75.21 nm  f=0.0042  <S**2>=0.000
       8 -> 22         0.13289
      10 -> 30         0.59202
      11 -> 31         0.29835
      12 -> 39         0.18529

 Excited State 101:      Singlet-A'    16.5261 eV   75.02 nm  f=0.0059  <S**2>=0.000
       5 -> 13        -0.14675
      12 -> 38         0.67355

 Excited State 102:      Singlet-A"    16.5946 eV   74.71 nm  f=0.0292  <S**2>=0.000
      10 -> 30        -0.14766
      12 -> 39         0.66673

 Excited State 103:      Singlet-A'    16.6573 eV   74.43 nm  f=0.0167  <S**2>=0.000
       5 -> 13         0.12249
       7 -> 20         0.45334
       8 -> 24        -0.18204
      10 -> 31        -0.15033
      11 -> 32         0.43522

 Excited State 104:      Singlet-A'    16.7143 eV   74.18 nm  f=0.0049  <S**2>=0.000
      10 -> 31        -0.11264
      12 -> 40         0.67686

 Excited State 105:      Singlet-A"    16.7234 eV   74.14 nm  f=0.0173  <S**2>=0.000
       5 -> 15         0.25222
       6 -> 14        -0.10551
       6 -> 16        -0.23504
       7 -> 19         0.14460
       7 -> 21        -0.13297
       8 -> 22        -0.12353
      10 -> 30        -0.15615
      10 -> 32         0.20392
      11 -> 31         0.43401

 Excited State 106:      Singlet-A'    16.7478 eV   74.03 nm  f=0.0084  <S**2>=0.000
       5 -> 14         0.10464
       7 -> 20         0.16192
       8 -> 24         0.56127
      10 -> 31        -0.30946
      12 -> 40        -0.13842

 Excited State 107:      Singlet-A"    16.7832 eV   73.87 nm  f=0.0010  <S**2>=0.000
       5 -> 15         0.15044
       6 -> 16         0.62162
       9 -> 30         0.18882
      11 -> 31         0.13005

 Excited State 108:      Singlet-A'    16.7897 eV   73.85 nm  f=0.1171  <S**2>=0.000
       7 -> 20        -0.17438
       8 -> 24         0.30634
      10 -> 31         0.37844
      11 -> 32         0.45114

 Excited State 109:      Singlet-A"    17.0161 eV   72.86 nm  f=0.0003  <S**2>=0.000
       6 -> 16        -0.17595
       9 -> 30         0.64656

 Excited State 110:      Singlet-A"    17.0826 eV   72.58 nm  f=0.0005  <S**2>=0.000
       5 -> 15        -0.43293

 The electronic state is 1-A'.
 Alpha  occ. eigenvalues --  -13.99529  -9.92358  -9.92346  -0.87885  -0.59037
 Alpha  occ. eigenvalues --   -0.55047  -0.47388  -0.42383  -0.33076  -0.31173
 Alpha  occ. eigenvalues --   -0.29837  -0.21216
 Alpha virt. eigenvalues --    0.00690   0.03402   0.03573   0.06230   0.07894
 Alpha virt. eigenvalues --    0.10406   0.12336   0.13472   0.16262   0.17074
 Alpha virt. eigenvalues --    0.17635   0.18672   0.20400   0.22757   0.23213

 Mulliken charges:
               1
     1  C    0.661438
     2  C    0.661438
     3  N   -0.364663
     4  H   -0.268756
     5  H   -0.190937
     6  H   -0.190937
     7  H   -0.268756
     8  H   -0.038827
 Sum of Mulliken charges =   0.00000

 Dipole moment (field-independent basis, Debye):
    X=             -1.2714    Y=             -0.9840    Z=              0.0000  Tot=              1.6077
 Quadrupole moment (field-independent basis, Debye-Ang):
   XX=            -17.9818   YY=            -21.3478   ZZ=            -18.8815
   XY=             -2.1049   XZ=              0.0000   YZ=             -0.0000

 Normal termination of Gaussian 16 at Mon Mar 21 20:13:27 2022.
