 Gaussian 16, Revision C.01,
 Gaussian 16:  EM64L-G16RevC.01  3-Jul-2019

 ----------------------------------------------------------------------
 #P TD(Nstates=10000) pbepbe/Gen SCF(maxcycles=100) Int(Grid=ultrafine)
 ----------------------------------------------------------------------

 ---------------------
 xGDB7_00001_tier4.com
 ---------------------
 Symbolic Z-matrix:
 Charge =  0 Multiplicity = 1

                         Standard orientation:
 ---------------------------------------------------------------------
 Center     Atomic      Atomic             Coordinates (Angstroms)
 Number     Number       Type             X           Y           Z
 ---------------------------------------------------------------------
      1          6           0       -0.000001    0.000006    0.000000
      2          1           0       -0.991926    0.448073    0.033817
      3          1           0        0.066172   -0.671147   -0.854975
      4          1           0        0.176250   -0.561167    0.916416
      5          1           0        0.749514    0.784204   -0.095260
 ---------------------------------------------------------------------

 SCF Done:  E(RPBE-PBE) =  -40.4177101978     A.U. after    9 cycles

 Excitation energies and oscillator strengths:

 Excited State   1:      Singlet-A      9.9276 eV  124.89 nm  f=0.1149  <S**2>=0.000
       5 ->  6         0.70596
 This state for optimization and/or second-order correction.
 Total Energy, E(TD-HF/TD-DFT) =  -40.0528792451
 Copying the excited state density for this state as the 1-particle RhoCI density.

 Excited State   2:      Singlet-A      9.9277 eV  124.89 nm  f=0.1149  <S**2>=0.000
       4 ->  6         0.70594

 Excited State   3:      Singlet-A      9.9277 eV  124.89 nm  f=0.1149  <S**2>=0.000
       3 ->  6         0.70594

 Excited State   4:      Singlet-A     12.2617 eV  101.11 nm  f=0.0000  <S**2>=0.000
       4 ->  7         0.19458
       4 ->  8        -0.27827
       4 ->  9         0.35808
       5 ->  7        -0.27080
       5 ->  8         0.24894
       5 ->  9         0.33880

 Excited State   5:      Singlet-A     12.2617 eV  101.11 nm  f=0.0000  <S**2>=0.000
       3 ->  7         0.20551
       3 ->  8        -0.30756
       3 ->  9         0.32651
       5 ->  7         0.37396
       5 ->  8         0.32415

 Excited State   6:      Singlet-A     12.2618 eV  101.11 nm  f=0.0000  <S**2>=0.000
       3 ->  7         0.19092
       3 ->  8        -0.27229
       3 ->  9        -0.37296
       4 ->  7         0.40580
       4 ->  8         0.28915

 Excited State   7:      Singlet-A     12.3719 eV  100.21 nm  f=0.0000  <S**2>=0.000
       3 ->  7        -0.14885
       3 ->  8         0.23722
       3 ->  9        -0.36646
       4 ->  7        -0.13127
       4 ->  8         0.10353
       5 ->  7         0.42784
       5 ->  8         0.18184
       5 ->  9         0.16947

 Excited State   8:      Singlet-A     12.3719 eV  100.21 nm  f=0.0000  <S**2>=0.000
       3 ->  7        -0.18894
       3 ->  8        -0.26366
       3 ->  9         0.10452
       4 ->  7        -0.25570
       4 ->  8         0.35693
       4 ->  9         0.31696
       5 ->  8        -0.17796
       5 ->  9         0.21699

 Excited State   9:      Singlet-A     12.4680 eV   99.44 nm  f=0.1278  <S**2>=0.000
       3 ->  7        -0.12135
       4 ->  7        -0.12545
       4 ->  8         0.19759
       4 ->  9        -0.37121
       4 -> 11         0.10966
       5 ->  7        -0.24885
       5 ->  8         0.39350
       5 ->  9         0.13452
       5 -> 11         0.10699
       5 -> 12         0.10688

 Excited State  10:      Singlet-A     12.4680 eV   99.44 nm  f=0.1278  <S**2>=0.000
       3 ->  7         0.39916
       3 ->  8         0.19772
       3 -> 10        -0.13468
       4 ->  9        -0.15033
       5 ->  8        -0.18395
       5 ->  9         0.41888
       5 -> 11        -0.10494

 Excited State  11:      Singlet-A     12.4681 eV   99.44 nm  f=0.1278  <S**2>=0.000
       3 ->  7        -0.21820
       3 ->  8         0.29964
       3 ->  9         0.29247
       3 -> 12         0.13310
       4 ->  7         0.37821
       4 ->  8         0.27924
       4 -> 10        -0.13090

 Excited State  12:      Singlet-A     13.0899 eV   94.72 nm  f=0.0000  <S**2>=0.000
       3 ->  7        -0.22990
       3 ->  8        -0.15686
       3 -> 10        -0.25752
       3 -> 11         0.10086
       4 ->  7         0.11563
       4 ->  8        -0.16558
       4 ->  9        -0.19150
       4 -> 12         0.26904
       5 ->  7         0.10608
       5 ->  8        -0.15946
       5 ->  9         0.20195
       5 -> 10         0.12398
       5 -> 11         0.25696

 Excited State  13:      Singlet-A     13.1400 eV   94.36 nm  f=0.0000  <S**2>=0.000
       3 -> 11         0.10157
       4 -> 10         0.22933
       4 -> 11         0.41950
       5 -> 10         0.19556
       5 -> 11        -0.19627
       5 -> 12        -0.41484

 Excited State  14:      Singlet-A     13.1400 eV   94.36 nm  f=0.0000  <S**2>=0.000
       3 -> 10         0.20755
       3 -> 11         0.42651
       3 -> 12        -0.10956
       5 -> 10         0.40908
       5 -> 11        -0.13408
       5 -> 12         0.25527

 Excited State  15:      Singlet-A     13.1401 eV   94.36 nm  f=0.0000  <S**2>=0.000
       3 -> 10        -0.10440
       3 -> 11         0.16254
       3 -> 12         0.45972
       4 -> 10         0.42843
       4 -> 11        -0.19541
       4 -> 12         0.16636

 Excited State  16:      Singlet-A     13.1743 eV   94.11 nm  f=0.0000  <S**2>=0.000
       3 -> 10        -0.20064
       3 -> 11        -0.38850
       3 -> 12         0.14613
       4 -> 12        -0.17068
       5 -> 10         0.48958

 Excited State  17:      Singlet-A     13.1744 eV   94.11 nm  f=0.0000  <S**2>=0.000
       3 -> 10         0.20175
       3 -> 11        -0.24632
       3 -> 12         0.12664
       4 -> 11         0.23637
       4 -> 12         0.48008
       5 -> 11        -0.23487
       5 -> 12         0.16693

 Excited State  18:      Singlet-A     13.6043 eV   91.14 nm  f=0.0139  <S**2>=0.000
       3 -> 13         0.14999
       3 -> 14         0.37020
       4 -> 10         0.14892
       4 -> 11         0.29749
       4 -> 12        -0.14763
       5 -> 11         0.20932
       5 -> 12         0.30592
       5 -> 13         0.20682

 Excited State  19:      Singlet-A     13.6043 eV   91.14 nm  f=0.0139  <S**2>=0.000
       3 -> 10        -0.35395
       4 -> 13         0.42814
       4 -> 14        -0.12038
       5 -> 10        -0.10015
       5 -> 11        -0.30412
       5 -> 12         0.15329

 Excited State  20:      Singlet-A     13.6044 eV   91.14 nm  f=0.0138  <S**2>=0.000
       3 -> 11        -0.12944
       3 -> 12        -0.34539
       3 -> 13         0.22080
       4 -> 10         0.33094
       4 -> 11        -0.10307
       5 -> 14         0.37874

 Excited State  21:      Singlet-A     13.8599 eV   89.46 nm  f=0.0000  <S**2>=0.000
       3 -> 13        -0.17059
       3 -> 14        -0.29703
       5 -> 13         0.61096

 Excited State  22:      Singlet-A     13.8600 eV   89.45 nm  f=0.0000  <S**2>=0.000
       3 -> 13         0.43019
       3 -> 14        -0.21482
       4 -> 13        -0.11473
       4 -> 14        -0.39880
       5 -> 14        -0.30762

 Excited State  23:      Singlet-A     13.8600 eV   89.45 nm  f=0.0000  <S**2>=0.000
       3 -> 13         0.33786
       3 -> 14        -0.19024
       4 -> 13         0.16961
       4 -> 14         0.54208
       5 -> 14        -0.16057

 Excited State  24:      Singlet-A     14.2001 eV   87.31 nm  f=0.0000  <S**2>=0.000
       2 ->  6        -0.15239
       3 ->  7         0.22243
       3 ->  8         0.15181
       3 -> 10        -0.24758
       4 ->  7        -0.11186
       4 ->  8         0.16024
       4 ->  9         0.18531
       4 -> 12         0.25886
       5 ->  7        -0.10264
       5 ->  8         0.15431
       5 ->  9        -0.19538
       5 -> 10         0.11906
       5 -> 11         0.24702

 Excited State  25:      Singlet-A     14.4950 eV   85.54 nm  f=0.6528  <S**2>=0.000
       3 -> 11         0.10966
       3 -> 12         0.26797
       3 -> 13         0.25176
       4 ->  7        -0.10594
       4 -> 10        -0.26183
       5 -> 14         0.43889

 Excited State  26:      Singlet-A     14.4950 eV   85.54 nm  f=0.6528  <S**2>=0.000
       3 ->  7         0.10769
       3 -> 10         0.27778
       4 -> 13         0.49565
       4 -> 14        -0.14763
       5 -> 11         0.26812

 Excited State  27:      Singlet-A     14.4950 eV   85.54 nm  f=0.6528  <S**2>=0.000
       3 -> 13         0.16619
       3 -> 14         0.41963
       4 ->  9        -0.11043
       4 -> 10        -0.11577
       4 -> 11        -0.23884
       4 -> 12         0.11842
       5 -> 11        -0.11906
       5 -> 12        -0.25849
       5 -> 13         0.24174

 Excited State  28:      Singlet-A     16.8811 eV   73.45 nm  f=0.1127  <S**2>=0.000
       5 -> 15         0.68983

 Excited State  29:      Singlet-A     16.8812 eV   73.45 nm  f=0.1127  <S**2>=0.000
       4 -> 15         0.68949

 Excited State  30:      Singlet-A     16.8812 eV   73.44 nm  f=0.1127  <S**2>=0.000
       3 -> 15         0.68952

 Excited State  31:      Singlet-A     17.6038 eV   70.43 nm  f=0.0000  <S**2>=0.000
       2 ->  6         0.66097
       5 -> 20         0.11749

 Excited State  32:      Singlet-A     18.3373 eV   67.61 nm  f=0.0191  <S**2>=0.000
       3 -> 18        -0.14766
       4 -> 19        -0.14790
       5 -> 16         0.66631

 Excited State  33:      Singlet-A     18.3374 eV   67.61 nm  f=0.0191  <S**2>=0.000
       3 -> 17        -0.14697
       4 -> 16         0.66626
       5 -> 19         0.14814

 Excited State  34:      Singlet-A     18.3375 eV   67.61 nm  f=0.0191  <S**2>=0.000
       3 -> 16         0.66626
       4 -> 17         0.14722
       5 -> 18         0.14809

 Excited State  35:      Singlet-A     18.5367 eV   66.89 nm  f=0.0000  <S**2>=0.000
       3 -> 17         0.46346
       4 -> 18        -0.15908
       5 -> 17        -0.11581
       5 -> 19         0.48002

 Excited State  36:      Singlet-A     18.5368 eV   66.89 nm  f=0.0000  <S**2>=0.000
       3 -> 17         0.18057
       3 -> 19         0.27582
       4 -> 18         0.54397
       5 -> 17         0.26635
       5 -> 19         0.11099

 Excited State  37:      Singlet-A     18.5625 eV   66.79 nm  f=0.0000  <S**2>=0.000
       4 -> 17        -0.48137
       5 -> 18         0.49010

 Excited State  38:      Singlet-A     18.5626 eV   66.79 nm  f=0.0000  <S**2>=0.000
       3 -> 19        -0.48083
       5 -> 17         0.48353

 Excited State  39:      Singlet-A     18.5626 eV   66.79 nm  f=0.0000  <S**2>=0.000
       3 -> 18         0.48143
       3 -> 19         0.10122
       4 -> 19        -0.48046

 Excited State  40:      Singlet-A     18.5743 eV   66.75 nm  f=0.0252  <S**2>=0.000
       3 -> 16        -0.21798
       4 -> 17         0.46678
       5 -> 18         0.46525

 Excited State  41:      Singlet-A     18.5743 eV   66.75 nm  f=0.0252  <S**2>=0.000
       3 -> 17        -0.46544
       4 -> 16        -0.21799
       5 -> 19         0.46641

 Excited State  42:      Singlet-A     18.5744 eV   66.75 nm  f=0.0251  <S**2>=0.000
       3 -> 18         0.46725
       4 -> 19         0.46807
       5 -> 16         0.21786

 Excited State  43:      Singlet-A     18.6494 eV   66.48 nm  f=0.0000  <S**2>=0.000
       3 -> 19         0.40187
       4 -> 18        -0.40122
       5 -> 17         0.39858

 Excited State  44:      Singlet-A     18.9884 eV   65.29 nm  f=0.0000  <S**2>=0.000
       4 -> 20         0.47944
       4 -> 21         0.10153
       5 -> 21         0.30141
       5 -> 22         0.37846

 Excited State  45:      Singlet-A     18.9885 eV   65.29 nm  f=0.0000  <S**2>=0.000
       3 -> 20         0.48052
       5 -> 21        -0.37511
       5 -> 22         0.31430

 Excited State  46:      Singlet-A     18.9886 eV   65.29 nm  f=0.0000  <S**2>=0.000
       3 -> 21         0.27528
       3 -> 22         0.40284
       4 -> 21         0.39915
       4 -> 22        -0.28253

 Excited State  47:      Singlet-A     19.0173 eV   65.20 nm  f=0.0000  <S**2>=0.000
       3 -> 20         0.43756
       3 -> 21         0.13404
       4 -> 21        -0.12714
       4 -> 22        -0.11402
       5 -> 20        -0.23669
       5 -> 21         0.30138
       5 -> 22        -0.31438

 Excited State  48:      Singlet-A     19.0173 eV   65.20 nm  f=0.0000  <S**2>=0.000
       3 -> 20         0.11025
       3 -> 21         0.27704
       3 -> 22        -0.17001
       4 -> 20        -0.16846
       4 -> 21         0.28451
       4 -> 22         0.43004
       5 -> 20         0.19056
       5 -> 21         0.21812

 Excited State  49:      Singlet-A     19.6327 eV   63.15 nm  f=0.2297  <S**2>=0.000
       2 ->  8         0.18707
       2 ->  9        -0.13493
       4 -> 20         0.37658
       4 -> 21         0.13634
       5 -> 20         0.27332
       5 -> 21        -0.16155
       5 -> 22        -0.32387

 Excited State  50:      Singlet-A     19.6327 eV   63.15 nm  f=0.2297  <S**2>=0.000
       2 ->  7        -0.10374
       2 ->  9         0.19571
       3 -> 20         0.14642
       3 -> 21        -0.30774
       3 -> 22         0.24786
       4 -> 20        -0.15414
       4 -> 26         0.10926
       5 -> 20         0.33240
       5 -> 21         0.24947
       5 -> 22         0.10834

 Excited State  51:      Singlet-A     19.6328 eV   63.15 nm  f=0.2297  <S**2>=0.000
       2 ->  7         0.20606
       2 ->  8         0.11862
       3 -> 20        -0.11977
       3 -> 21         0.23905
       3 -> 22         0.35119
       4 -> 21        -0.34104
       4 -> 22         0.27146
       5 -> 27        -0.10392

 Excited State  52:      Singlet-A     19.6451 eV   63.11 nm  f=0.0000  <S**2>=0.000
       2 ->  6        -0.10378
       3 -> 21         0.25683
       3 -> 22        -0.18371
       3 -> 25        -0.23657
       4 -> 21        -0.17417
       4 -> 22        -0.25821
       4 -> 24        -0.22998
       5 -> 20         0.30531
       5 -> 23        -0.22546

 Excited State  53:      Singlet-A     20.1677 eV   61.48 nm  f=0.0002  <S**2>=0.000
       2 ->  7        -0.39334
       2 ->  8         0.49491
       2 ->  9        -0.11022
       4 -> 26        -0.10539
       5 -> 20        -0.13511

 Excited State  54:      Singlet-A     20.1678 eV   61.48 nm  f=0.0002  <S**2>=0.000
       2 ->  7         0.44434
       2 ->  8         0.26928
       2 ->  9        -0.37662
       3 -> 21        -0.10707
       4 -> 20        -0.10502

 Excited State  55:      Singlet-A     20.1678 eV   61.48 nm  f=0.0002  <S**2>=0.000
       2 ->  7         0.24420
       2 ->  8         0.30717
       2 ->  9         0.50775
       3 -> 22        -0.14356
       4 -> 21         0.10956
       5 -> 27         0.10653

 Excited State  56:      Singlet-A     20.4645 eV   60.58 nm  f=0.0000  <S**2>=0.000
       4 -> 23        -0.47130
       4 -> 24         0.14996
       5 -> 23         0.15246
       5 -> 24         0.47262

 Excited State  57:      Singlet-A     20.4646 eV   60.58 nm  f=0.0000  <S**2>=0.000
       3 -> 23        -0.47532
       3 -> 24         0.10907
       5 -> 25         0.48743

 Excited State  58:      Singlet-A     20.4647 eV   60.58 nm  f=0.0000  <S**2>=0.000
       3 -> 23        -0.10419
       3 -> 24        -0.48288
       4 -> 25         0.49129

 Excited State  59:      Singlet-A     20.5487 eV   60.34 nm  f=0.0000  <S**2>=0.000
       3 -> 23         0.42755
       3 -> 24        -0.18783
       4 -> 24         0.11353
       5 -> 24         0.11673
       5 -> 25         0.48089

 Excited State  60:      Singlet-A     20.5487 eV   60.34 nm  f=0.0000  <S**2>=0.000
       3 -> 23        -0.18044
       3 -> 25        -0.26817
       4 -> 23         0.22651
       4 -> 24         0.49501
       5 -> 23        -0.23437
       5 -> 24         0.14075

 Excited State  61:      Singlet-A     20.5668 eV   60.28 nm  f=0.0227  <S**2>=0.000
       2 -> 11         0.13138
       3 -> 25        -0.11641
       4 -> 23         0.40128
       4 -> 24        -0.22054
       5 -> 23         0.32087
       5 -> 24         0.36643

 Excited State  62:      Singlet-A     20.5669 eV   60.28 nm  f=0.0227  <S**2>=0.000
       2 -> 12        -0.12457
       3 -> 24         0.15560
       3 -> 25         0.44318
       4 -> 23         0.15237
       5 -> 23        -0.37646
       5 -> 24         0.26513

 Excited State  63:      Singlet-A     20.5670 eV   60.28 nm  f=0.0227  <S**2>=0.000
       2 -> 10         0.12244
       3 -> 23         0.17290
       3 -> 24         0.41964
       3 -> 25        -0.16498
       4 -> 25         0.46340

 Excited State  64:      Singlet-A     20.8882 eV   59.36 nm  f=0.0170  <S**2>=0.000
       2 -> 10         0.68225

 Excited State  65:      Singlet-A     20.8882 eV   59.36 nm  f=0.0170  <S**2>=0.000
       2 -> 11         0.64853
       2 -> 12         0.22153

 Excited State  66:      Singlet-A     20.8882 eV   59.36 nm  f=0.0169  <S**2>=0.000
       2 -> 11        -0.21646
       2 -> 12         0.64918

 Excited State  67:      Singlet-A     21.4772 eV   57.73 nm  f=0.0000  <S**2>=0.000
       2 -> 13         0.70168

 Excited State  68:      Singlet-A     21.4772 eV   57.73 nm  f=0.0000  <S**2>=0.000
       2 -> 14         0.70168

 Excited State  69:      Singlet-A     21.7237 eV   57.07 nm  f=0.0000  <S**2>=0.000
       2 ->  6        -0.13144
       2 -> 15        -0.24962
       2 -> 16        -0.10091
       3 -> 21         0.14733
       3 -> 22        -0.10532
       3 -> 25         0.29680
       4 -> 21        -0.10067
       4 -> 22        -0.14925
       4 -> 24         0.28900
       5 -> 20         0.17804
       5 -> 23         0.28381

 Excited State  70:      Singlet-A     22.1377 eV   56.01 nm  f=0.0000  <S**2>=0.000
       3 -> 26        -0.21805
       3 -> 27        -0.27032
       5 -> 26         0.61103

 Excited State  71:      Singlet-A     22.1378 eV   56.01 nm  f=0.0000  <S**2>=0.000
       3 -> 26         0.49941
       3 -> 27        -0.29776
       4 -> 27        -0.19030
       5 -> 27        -0.34883

 Excited State  72:      Singlet-A     22.1378 eV   56.01 nm  f=0.0000  <S**2>=0.000
       3 -> 26         0.16963
       3 -> 27        -0.11069
       4 -> 26         0.20779
       4 -> 27         0.64282

 Excited State  73:      Singlet-A     22.8966 eV   54.15 nm  f=0.3840  <S**2>=0.000
       3 -> 26         0.26255
       3 -> 27        -0.19527
       5 -> 27         0.57834

 Excited State  74:      Singlet-A     22.8967 eV   54.15 nm  f=0.3840  <S**2>=0.000
       3 -> 26         0.25768
       3 -> 27         0.43986
       4 -> 26         0.28145
       5 -> 26         0.31708

 Excited State  75:      Singlet-A     22.8967 eV   54.15 nm  f=0.3840  <S**2>=0.000
       3 -> 26        -0.14319
       3 -> 27        -0.24513
       4 -> 26         0.56783
       4 -> 27        -0.18596
       5 -> 20        -0.10040

 Excited State  76:      Singlet-A     24.7392 eV   50.12 nm  f=0.0000  <S**2>=0.000
       2 -> 15         0.61475
       2 -> 16        -0.27744

 Excited State  77:      Singlet-A     26.0797 eV   47.54 nm  f=0.0000  <S**2>=0.000
       2 -> 17         0.70696

 Excited State  78:      Singlet-A     26.0797 eV   47.54 nm  f=0.0000  <S**2>=0.000
       2 -> 18         0.70696

 Excited State  79:      Singlet-A     26.0797 eV   47.54 nm  f=0.0000  <S**2>=0.000
       2 -> 19         0.70696

 Excited State  80:      Singlet-A     26.3949 eV   46.97 nm  f=0.0000  <S**2>=0.000
       2 -> 15         0.21146
       2 -> 16         0.63492

 Excited State  81:      Singlet-A     26.8719 eV   46.14 nm  f=0.0010  <S**2>=0.000
       2 -> 20         0.68792
       2 -> 23        -0.10273

 Excited State  82:      Singlet-A     26.8719 eV   46.14 nm  f=0.0010  <S**2>=0.000
       2 -> 21         0.52653
       2 -> 22         0.44681
       2 -> 24         0.10113

 Excited State  83:      Singlet-A     26.8719 eV   46.14 nm  f=0.0010  <S**2>=0.000
       2 -> 21        -0.44288
       2 -> 22         0.52910

 Excited State  84:      Singlet-A     28.1167 eV   44.10 nm  f=0.0138  <S**2>=0.000
       2 -> 23         0.69657

 Excited State  85:      Singlet-A     28.1168 eV   44.10 nm  f=0.0138  <S**2>=0.000
       2 -> 24         0.69663

 Excited State  86:      Singlet-A     28.1169 eV   44.10 nm  f=0.0138  <S**2>=0.000
       2 -> 25         0.69661

 Excited State  87:      Singlet-A     29.8162 eV   41.58 nm  f=0.0000  <S**2>=0.000
       2 -> 26        -0.14514
       2 -> 27         0.61044
       3 -> 28        -0.19452
       4 -> 29        -0.11038
       5 -> 28         0.12291
       5 -> 30         0.15438

 Excited State  88:      Singlet-A     29.8162 eV   41.58 nm  f=0.0000  <S**2>=0.000
       2 -> 26         0.61047
       2 -> 27         0.14513
       3 -> 28        -0.10512
       3 -> 30         0.12408
       4 -> 29         0.20159
       4 -> 30         0.10375
       5 -> 30         0.11690

 Excited State  89:      Singlet-A     30.0437 eV   41.27 nm  f=0.0000  <S**2>=0.000
       3 -> 28         0.10745
       4 -> 28         0.48349
       5 -> 29        -0.47724
       5 -> 30        -0.13208

 Excited State  90:      Singlet-A     30.0437 eV   41.27 nm  f=0.0000  <S**2>=0.000
       3 -> 28         0.48578
       4 -> 28        -0.11060
       5 -> 29        -0.13067
       5 -> 30         0.48062

 Excited State  91:      Singlet-A     30.0438 eV   41.27 nm  f=0.0000  <S**2>=0.000
       3 -> 29         0.44003
       3 -> 30         0.23425
       4 -> 29        -0.23459
       4 -> 30         0.44001

 Excited State  92:      Singlet-A     30.3115 eV   40.90 nm  f=0.0000  <S**2>=0.000
       2 -> 27         0.32414
       3 -> 28         0.40924
       4 -> 29         0.12430
       4 -> 30         0.11299
       5 -> 28        -0.19789

 The electronic state is 1-A.
 Alpha  occ. eigenvalues --   -9.88143  -0.62108  -0.34686  -0.34686  -0.34686
 Alpha virt. eigenvalues --    0.01285   0.10355   0.10355   0.10355   0.13705
 Alpha virt. eigenvalues --    0.13705   0.13705   0.16410   0.16410   0.26385
 Alpha virt. eigenvalues --    0.32846   0.33850   0.33850   0.33851   0.35174

 Mulliken charges:
               1
     1  C    0.295709
     2  H   -0.073905
     3  H   -0.073939
     4  H   -0.073949
     5  H   -0.073917
 Sum of Mulliken charges =  -0.00000

 Dipole moment (field-independent basis, Debye):
    X=              0.0000    Y=             -0.0000    Z=              0.0000  Tot=              0.0000
 Quadrupole moment (field-independent basis, Debye-Ang):
   XX=             -8.4855   YY=             -8.4855   ZZ=             -8.4856
   XY=              0.0000   XZ=              0.0000   YZ=             -0.0000

 Normal termination of Gaussian 16 at Mon Mar 21 20:16:48 2022.
