 Gaussian 16, Revision C.01,
 Gaussian 16:  EM64L-G16RevC.01  3-Jul-2019

 ----------------------------------------------------------------------
 #P TD(Nstates=10000) pbepbe/Gen SCF(maxcycles=100) Int(Grid=ultrafine)
 ----------------------------------------------------------------------

 ---------------------
 xGDB7_00001_tier4.com
 ---------------------
 Symbolic Z-matrix:
 Charge =  0 Multiplicity = 1

                         Standard orientation:
 ---------------------------------------------------------------------
 Center     Atomic      Atomic             Coordinates (Angstroms)
 Number     Number       Type             X           Y           Z
 ---------------------------------------------------------------------
      1          6           0        0.000000    0.000000    0.761397
      2          6           0       -0.000000   -0.000000   -0.761397
      3          1           0        0.000000    1.017110    1.157248
      4          1           0        0.880843   -0.508555    1.157248
      5          1           0       -0.880843   -0.508555    1.157248
      6          1           0        0.880843    0.508555   -1.157248
      7          1           0       -0.880843    0.508555   -1.157248
      8          1           0       -0.000000   -1.017110   -1.157248
 ---------------------------------------------------------------------

 SCF Done:  E(RPBE-PBE) =  -79.6465202875     A.U. after    9 cycles

 Excitation energies and oscillator strengths:

 Excited State   1:      Singlet-EG     8.4401 eV  146.90 nm  f=0.0000  <S**2>=0.000
       8 -> 10         0.70677
 This state for optimization and/or second-order correction.
 Total Energy, E(TD-HF/TD-DFT) =  -79.3363538662
 Copying the excited state density for this state as the 1-particle RhoCI density.

 Excited State   2:      Singlet-EG     8.4401 eV  146.90 nm  f=0.0000  <S**2>=0.000
       9 -> 10         0.70677

 Excited State   3:      Singlet-EU     9.3151 eV  133.10 nm  f=0.0635  <S**2>=0.000
       9 -> 11         0.70538

 Excited State   4:      Singlet-EU     9.3151 eV  133.10 nm  f=0.0635  <S**2>=0.000
       8 -> 11         0.70538

 Excited State   5:      Singlet-A1G    9.3226 eV  132.99 nm  f=0.0000  <S**2>=0.000
       7 -> 10         0.70255

 Excited State   6:      Singlet-A2U   10.1165 eV  122.56 nm  f=0.1463  <S**2>=0.000
       7 -> 11         0.69528

 Excited State   7:      Singlet-EG    10.2966 eV  120.41 nm  f=0.0000  <S**2>=0.000
       8 -> 13        -0.49998
       9 -> 12         0.49998

 Excited State   8:      Singlet-EG    10.3381 eV  119.93 nm  f=0.0385  <S**2>=0.000
       8 -> 12         0.49569
       9 -> 13        -0.49569

 Excited State   9:      Singlet-EG    10.3381 eV  119.93 nm  f=0.0385  <S**2>=0.000
       8 -> 13         0.49569
       9 -> 12         0.49569

 Excited State  10:      Singlet-EG    10.6382 eV  116.55 nm  f=0.2985  <S**2>=0.000
       7 -> 11        -0.12011
       8 -> 12         0.48605
       9 -> 13         0.48605

 Excited State  11:      Singlet-EU    10.8151 eV  114.64 nm  f=0.0000  <S**2>=0.000
       8 -> 14         0.49986
       9 -> 15        -0.49986

 Excited State  12:      Singlet-EU    10.9040 eV  113.70 nm  f=0.1120  <S**2>=0.000
       6 -> 10         0.69027
       7 -> 12         0.12746

 Excited State  13:      Singlet-EU    10.9040 eV  113.70 nm  f=0.1120  <S**2>=0.000
       5 -> 10         0.69027
       7 -> 13         0.12746

 Excited State  14:      Singlet-EU    10.9786 eV  112.93 nm  f=0.0000  <S**2>=0.000
       8 -> 15         0.48668
       9 -> 14         0.48670

 Excited State  15:      Singlet-EU    10.9975 eV  112.74 nm  f=0.0000  <S**2>=0.000
       8 -> 15         0.49702
       9 -> 14        -0.49700

 Excited State  16:      Singlet-EU    10.9975 eV  112.74 nm  f=0.0000  <S**2>=0.000
       8 -> 14         0.49701
       9 -> 15         0.49701

 Excited State  17:      Singlet-EU    11.1966 eV  110.73 nm  f=0.0797  <S**2>=0.000
       6 -> 10        -0.11961
       7 -> 12         0.69001

 Excited State  18:      Singlet-EU    11.1966 eV  110.73 nm  f=0.0797  <S**2>=0.000
       5 -> 10        -0.11961
       7 -> 13         0.69001

 Excited State  19:      Singlet-EG    11.6368 eV  106.54 nm  f=0.0000  <S**2>=0.000
       7 -> 15         0.70050

 Excited State  20:      Singlet-EG    11.6368 eV  106.54 nm  f=0.0000  <S**2>=0.000
       7 -> 14         0.70050

 Excited State  21:      Singlet-EG    11.7197 eV  105.79 nm  f=0.0000  <S**2>=0.000
       6 -> 11         0.70169

 Excited State  22:      Singlet-EG    11.7197 eV  105.79 nm  f=0.0000  <S**2>=0.000
       5 -> 11         0.70169

 Excited State  23:      Singlet-EG    11.8255 eV  104.84 nm  f=0.0000  <S**2>=0.000
       8 -> 16         0.70069

 Excited State  24:      Singlet-EG    11.8255 eV  104.84 nm  f=0.0000  <S**2>=0.000
       9 -> 16         0.70069

 Excited State  25:      Singlet-EU    12.1264 eV  102.24 nm  f=0.0000  <S**2>=0.000
       8 -> 17         0.49985
       9 -> 18        -0.49984

 Excited State  26:      Singlet-EU    12.1646 eV  101.92 nm  f=0.0000  <S**2>=0.000
       8 -> 18        -0.49611
       9 -> 17         0.49611

 Excited State  27:      Singlet-EU    12.1646 eV  101.92 nm  f=0.0000  <S**2>=0.000
       8 -> 17         0.49611
       9 -> 18         0.49611

 Excited State  28:      Singlet-EU    12.3177 eV  100.66 nm  f=0.0000  <S**2>=0.000
       5 -> 13        -0.20061
       6 -> 12        -0.20061
       7 -> 16         0.11788
       8 -> 18         0.44800
       9 -> 17         0.44800

 Excited State  29:      Singlet-EG    12.7013 eV   97.62 nm  f=0.0000  <S**2>=0.000
       8 -> 21         0.49982
       9 -> 20        -0.49982

 Excited State  30:      Singlet-EU    12.7100 eV   97.55 nm  f=0.0000  <S**2>=0.000
       5 -> 12        -0.49999
       6 -> 13         0.49999

 Excited State  31:      Singlet-A1G   12.7132 eV   97.52 nm  f=0.0000  <S**2>=0.000
       5 -> 13         0.23008
       6 -> 12         0.23008
       7 -> 16         0.62541

 Excited State  32:      Singlet-EU    12.7591 eV   97.17 nm  f=0.0080  <S**2>=0.000
       8 -> 20         0.23213
       9 -> 19         0.62287
       9 -> 21        -0.23213

 Excited State  33:      Singlet-EU    12.7591 eV   97.17 nm  f=0.0080  <S**2>=0.000
       8 -> 19         0.62287
       8 -> 21         0.23213
       9 -> 20         0.23213

 Excited State  34:      Singlet-EU    12.7652 eV   97.13 nm  f=0.0000  <S**2>=0.000
       5 -> 12         0.49515
       6 -> 13         0.49515

 Excited State  35:      Singlet-EU    12.7652 eV   97.13 nm  f=0.0000  <S**2>=0.000
       5 -> 13        -0.49515
       6 -> 12         0.49515

 Excited State  36:      Singlet-EG    12.9322 eV   95.87 nm  f=0.0000  <S**2>=0.000
       7 -> 18         0.70202

 Excited State  37:      Singlet-EG    12.9322 eV   95.87 nm  f=0.0000  <S**2>=0.000
       7 -> 17         0.70202

 Excited State  38:      Singlet-EG    12.9476 eV   95.76 nm  f=0.0334  <S**2>=0.000
       5 -> 14         0.22515
       6 -> 15        -0.22515
       7 -> 21        -0.16806
       8 -> 20        -0.38371
       9 -> 19         0.25959
       9 -> 21         0.38371

 Excited State  39:      Singlet-EG    12.9476 eV   95.76 nm  f=0.0334  <S**2>=0.000
       5 -> 15         0.22515
       6 -> 14         0.22515
       7 -> 20         0.16806
       8 -> 19        -0.25959
       8 -> 21         0.38371
       9 -> 20         0.38371

 Excited State  40:      Singlet-EG    13.1039 eV   94.62 nm  f=0.0889  <S**2>=0.000
       5 -> 14         0.10140
       6 -> 15         0.10140
       7 -> 19         0.24713
       8 -> 20         0.44897
       9 -> 21         0.44897

 Excited State  41:      Singlet-EG    13.2354 eV   93.68 nm  f=0.0000  <S**2>=0.000
       5 -> 15        -0.49993
       6 -> 14         0.49993

 Excited State  42:      Singlet-EG    13.3392 eV   92.95 nm  f=0.0601  <S**2>=0.000
       5 -> 14         0.46111
       6 -> 15         0.46111
       7 -> 19         0.15039
       8 -> 20        -0.13436
       9 -> 21        -0.13436

 Excited State  43:      Singlet-EU    13.4874 eV   91.93 nm  f=0.1212  <S**2>=0.000
       5 -> 15        -0.32192
       6 -> 14        -0.32192
       7 -> 20         0.52738

 Excited State  44:      Singlet-EU    13.4874 eV   91.93 nm  f=0.1212  <S**2>=0.000
       5 -> 14         0.32192
       6 -> 15        -0.32192
       7 -> 21         0.52738

 Excited State  45:      Singlet-EU    13.8220 eV   89.70 nm  f=0.1702  <S**2>=0.000
       5 -> 15         0.25078
       5 -> 18         0.10091
       6 -> 14         0.25078
       6 -> 16         0.25640
       6 -> 17         0.10091
       7 -> 20         0.40282
       8 -> 19         0.13641
       8 -> 21        -0.14886
       8 -> 22         0.14747
       9 -> 20        -0.14886
       9 -> 23         0.14748

 Excited State  46:      Singlet-EU    13.8220 eV   89.70 nm  f=0.1702  <S**2>=0.000
       5 -> 14        -0.25078
       5 -> 16         0.25640
       5 -> 17        -0.10091
       6 -> 15         0.25078
       6 -> 18         0.10091
       7 -> 21         0.40282
       8 -> 20        -0.14886
       8 -> 23         0.14748
       9 -> 19         0.13641
       9 -> 21         0.14886
       9 -> 22        -0.14747

 Excited State  47:      Singlet-A2U   13.9184 eV   89.08 nm  f=0.0525  <S**2>=0.000
       4 -> 10        -0.10648
       5 -> 14        -0.11875
       6 -> 15        -0.11875
       7 -> 19         0.51794
       8 -> 23        -0.27730
       9 -> 22        -0.27730

 Excited State  48:      Singlet-EU    14.0325 eV   88.36 nm  f=0.0000  <S**2>=0.000
       4 -> 11         0.17213
       5 -> 13         0.36248
       6 -> 12         0.36248
       7 -> 16        -0.28574
       8 -> 18         0.18647
       9 -> 17         0.18647

 Excited State  49:      Singlet-EU    14.2345 eV   87.10 nm  f=0.0204  <S**2>=0.000
       6 -> 16         0.44476
       8 -> 22        -0.38709
       9 -> 23        -0.38706

 Excited State  50:      Singlet-EU    14.2345 eV   87.10 nm  f=0.0204  <S**2>=0.000
       5 -> 16         0.44476
       8 -> 23        -0.38708
       9 -> 22         0.38708

 Excited State  51:      Singlet-EG    14.2372 eV   87.08 nm  f=0.0000  <S**2>=0.000
       8 -> 22        -0.49966
       9 -> 23         0.49968

 Excited State  52:      Singlet-EU    14.4120 eV   86.03 nm  f=0.1796  <S**2>=0.000
       5 -> 16         0.40852
       5 -> 17         0.27512
       6 -> 18        -0.27512
       7 -> 22        -0.10950
       8 -> 23         0.25184
       9 -> 22        -0.25185

 Excited State  53:      Singlet-EU    14.4120 eV   86.03 nm  f=0.1796  <S**2>=0.000
       5 -> 18        -0.27512
       6 -> 16         0.40852
       6 -> 17        -0.27511
       7 -> 23        -0.10950
       8 -> 22         0.25185
       9 -> 23         0.25184

 Excited State  54:      Singlet-EG    14.5511 eV   85.21 nm  f=0.0000  <S**2>=0.000
       5 -> 18        -0.49980
       6 -> 17         0.49980

 Excited State  55:      Singlet-EG    14.5910 eV   84.97 nm  f=0.7510  <S**2>=0.000
       4 -> 10        -0.19404
       5 -> 17         0.13344
       6 -> 18         0.13344
       7 -> 19         0.27002
       7 -> 24        -0.12942
       8 -> 20        -0.10096
       8 -> 23         0.39089
       9 -> 21        -0.10097
       9 -> 22         0.39089

 Excited State  56:      Singlet-EG    14.7263 eV   84.19 nm  f=0.1781  <S**2>=0.000
       5 -> 18         0.38858
       6 -> 16         0.21187
       6 -> 17         0.38858
       7 -> 20        -0.11300
       7 -> 23        -0.27209

 Excited State  57:      Singlet-EG    14.7263 eV   84.19 nm  f=0.1781  <S**2>=0.000
       5 -> 16         0.21187
       5 -> 17        -0.38857
       6 -> 18         0.38858
       7 -> 21        -0.11300
       7 -> 22        -0.27209

 Excited State  58:      Singlet-EG    14.7788 eV   83.89 nm  f=0.0327  <S**2>=0.000
       4 -> 10         0.26333
       5 -> 17         0.44722
       6 -> 18         0.44721

 Excited State  59:      Singlet-EU    15.1162 eV   82.02 nm  f=0.0000  <S**2>=0.000
       5 -> 20         0.49984
       6 -> 21        -0.49984

 Excited State  60:      Singlet-EG    15.1694 eV   81.73 nm  f=0.0000  <S**2>=0.000
       5 -> 19         0.64443
       5 -> 21        -0.20215
       6 -> 20         0.20215

 Excited State  61:      Singlet-EG    15.1694 eV   81.73 nm  f=0.0000  <S**2>=0.000
       5 -> 20         0.20215
       6 -> 19         0.64443
       6 -> 21         0.20215

 Excited State  62:      Singlet-EU    15.1896 eV   81.62 nm  f=0.2841  <S**2>=0.000
       5 -> 18         0.10101
       6 -> 16         0.11756
       6 -> 17         0.10101
       7 -> 23         0.63080

 Excited State  63:      Singlet-EU    15.1896 eV   81.62 nm  f=0.2841  <S**2>=0.000
       5 -> 16         0.11756
       5 -> 17        -0.10101
       6 -> 18         0.10101
       7 -> 22         0.63080

 Excited State  64:      Singlet-EU    15.4011 eV   80.50 nm  f=0.0000  <S**2>=0.000
       5 -> 21         0.48849
       6 -> 20         0.48853

 Excited State  65:      Singlet-EU    15.4250 eV   80.38 nm  f=0.0000  <S**2>=0.000
       5 -> 20         0.43859
       6 -> 19        -0.26273
       6 -> 21         0.43859
       8 -> 25        -0.15416

 Excited State  66:      Singlet-EU    15.4250 eV   80.38 nm  f=0.0000  <S**2>=0.000
       5 -> 19         0.26273
       5 -> 21         0.43861
       6 -> 20        -0.43857
       9 -> 25         0.15416

 Excited State  67:      Singlet-EU    15.5169 eV   79.90 nm  f=0.0819  <S**2>=0.000
       9 -> 24         0.69507

 Excited State  68:      Singlet-EU    15.5169 eV   79.90 nm  f=0.0819  <S**2>=0.000
       8 -> 24         0.69507

 Excited State  69:      Singlet-A2U   15.5417 eV   79.78 nm  f=0.0000  <S**2>=0.000
       4 -> 10         0.59560
       5 -> 17        -0.11253
       6 -> 18        -0.11253
       7 -> 19         0.15553
       7 -> 24        -0.23302

 Excited State  70:      Singlet-EG    16.0241 eV   77.37 nm  f=0.0000  <S**2>=0.000
       8 -> 25         0.67885

 Excited State  71:      Singlet-EG    16.0241 eV   77.37 nm  f=0.0000  <S**2>=0.000
       9 -> 25         0.67885

 Excited State  72:      Singlet-A1G   16.2246 eV   76.42 nm  f=0.0000  <S**2>=0.000
       4 -> 11         0.64437
       7 -> 25         0.21731

 Excited State  73:      Singlet-EU    16.3715 eV   75.73 nm  f=0.0232  <S**2>=0.000
       8 -> 26         0.70533

 Excited State  74:      Singlet-EU    16.3715 eV   75.73 nm  f=0.0232  <S**2>=0.000
       9 -> 26         0.70533

 Excited State  75:      Singlet-EU    16.6581 eV   74.43 nm  f=0.0000  <S**2>=0.000
       5 -> 22         0.49484
       6 -> 23        -0.49483

 Excited State  76:      Singlet-EU    16.6581 eV   74.43 nm  f=0.0000  <S**2>=0.000
       5 -> 23         0.49453
       6 -> 22         0.49514

 Excited State  77:      Singlet-EU    16.6590 eV   74.42 nm  f=0.0000  <S**2>=0.000
       5 -> 23         0.49981
       6 -> 22        -0.49920

 Excited State  78:      Singlet-A2U   16.6631 eV   74.41 nm  f=0.3176  <S**2>=0.000
       4 -> 10         0.11349
       7 -> 19         0.13194
       7 -> 24         0.62165
       7 -> 33        -0.18383

 Excited State  79:      Singlet-EU    16.7643 eV   73.96 nm  f=0.0000  <S**2>=0.000
       4 -> 11        -0.11001
       5 -> 22         0.40926
       6 -> 23         0.40927
       7 -> 25         0.33810
       8 -> 28         0.12023
       9 -> 27         0.12023

 Excited State  80:      Singlet-A1G   16.9033 eV   73.35 nm  f=0.0000  <S**2>=0.000
       4 -> 11        -0.10193
       5 -> 22        -0.27053
       6 -> 23        -0.27053
       7 -> 25         0.53486
       8 -> 28         0.13214
       9 -> 27         0.13214

 Excited State  81:      Singlet-EG    17.1511 eV   72.29 nm  f=0.0000  <S**2>=0.000
       4 -> 12         0.69105
       6 -> 24        -0.12706

 Excited State  82:      Singlet-EG    17.1511 eV   72.29 nm  f=0.0000  <S**2>=0.000
       4 -> 13         0.69105
       5 -> 24        -0.12706

 Excited State  83:      Singlet-A1U   17.1790 eV   72.17 nm  f=0.0000  <S**2>=0.000
       7 -> 26         0.70406

 Excited State  84:      Singlet-EU    17.2442 eV   71.90 nm  f=0.0000  <S**2>=0.000
       8 -> 27         0.49962
       9 -> 28        -0.49962

 Excited State  85:      Singlet-EG    17.3423 eV   71.49 nm  f=0.0000  <S**2>=0.000
       8 -> 30        -0.49794
       9 -> 29         0.49794

 Excited State  86:      Singlet-EU    17.3615 eV   71.41 nm  f=0.0163  <S**2>=0.000
       4 -> 15        -0.11555
       8 -> 30        -0.20996
       8 -> 31         0.62909
       9 -> 29        -0.20995

 Excited State  87:      Singlet-EU    17.3615 eV   71.41 nm  f=0.0163  <S**2>=0.000
       4 -> 14        -0.11555
       8 -> 29        -0.20996
       9 -> 30         0.20996
       9 -> 31         0.62909

 Excited State  88:      Singlet-EU    17.5296 eV   70.73 nm  f=0.0000  <S**2>=0.000
       8 -> 28         0.40905
       9 -> 27        -0.40905
       9 -> 32         0.37246

 Excited State  89:      Singlet-EU    17.5296 eV   70.73 nm  f=0.0000  <S**2>=0.000
       8 -> 27         0.40905
       8 -> 32         0.37246
       9 -> 28         0.40905

 Excited State  90:      Singlet-EG    17.5822 eV   70.52 nm  f=0.0785  <S**2>=0.000
       5 -> 25        -0.15081
       7 -> 30         0.14934
       8 -> 29         0.41751
       9 -> 30        -0.41751
       9 -> 31         0.28317

 Excited State  91:      Singlet-EG    17.5822 eV   70.52 nm  f=0.0785  <S**2>=0.000
       6 -> 25        -0.15081
       7 -> 29         0.14934
       8 -> 30         0.41751
       8 -> 31         0.28317
       9 -> 29         0.41751

 Excited State  92:      Singlet-EU    17.6138 eV   70.39 nm  f=0.0000  <S**2>=0.000
       3 -> 10        -0.12903
       4 -> 11         0.12532
       5 -> 30        -0.10930
       6 -> 29        -0.10930
       7 -> 25        -0.16686
       8 -> 28         0.42929
       9 -> 27         0.42930

 Excited State  93:      Singlet-EU    17.7293 eV   69.93 nm  f=0.0009  <S**2>=0.000
       4 -> 15         0.68498

 Excited State  94:      Singlet-EU    17.7293 eV   69.93 nm  f=0.0009  <S**2>=0.000
       4 -> 14         0.68498

 Excited State  95:      Singlet-EG    17.8035 eV   69.64 nm  f=0.0000  <S**2>=0.000
       7 -> 27        -0.25074
       8 -> 28        -0.21915
       9 -> 27         0.21915
       9 -> 32         0.56426

 Excited State  96:      Singlet-EG    17.8035 eV   69.64 nm  f=0.0000  <S**2>=0.000
       7 -> 28        -0.25075
       8 -> 27        -0.21915
       8 -> 32         0.56425
       9 -> 28        -0.21915

 Excited State  97:      Singlet-EG    17.8866 eV   69.32 nm  f=0.2559  <S**2>=0.000
       8 -> 29         0.47090
       9 -> 30         0.47090

 Excited State  98:      Singlet-EG    17.9427 eV   69.10 nm  f=0.0000  <S**2>=0.000
       4 -> 12         0.11773
       6 -> 24         0.67566

 Excited State  99:      Singlet-EG    17.9427 eV   69.10 nm  f=0.0000  <S**2>=0.000
       4 -> 13         0.11773
       5 -> 24         0.67566

 Excited State 100:      Singlet-EG    18.0883 eV   68.54 nm  f=0.0000  <S**2>=0.000
       6 -> 24        -0.10197
       7 -> 28         0.64994
       8 -> 32         0.17067

 Excited State 101:      Singlet-EG    18.0883 eV   68.54 nm  f=0.0000  <S**2>=0.000
       5 -> 24        -0.10197
       7 -> 27         0.64994
       9 -> 32         0.17066

 Excited State 102:      Singlet-EU    18.1718 eV   68.23 nm  f=0.0052  <S**2>=0.000
       6 -> 25        -0.12755
       7 -> 29        -0.45852
       8 -> 33         0.51668

 Excited State 103:      Singlet-EU    18.1718 eV   68.23 nm  f=0.0052  <S**2>=0.000
       5 -> 25        -0.12755
       7 -> 30        -0.45852
       9 -> 33         0.51668

 Excited State 104:      Singlet-A2U   18.2596 eV   67.90 nm  f=0.0339  <S**2>=0.000
       7 -> 31         0.68614
       7 -> 33         0.11082

 Excited State 105:      Singlet-EU    18.3541 eV   67.55 nm  f=0.0081  <S**2>=0.000
       4 -> 18        -0.10422
       6 -> 25         0.47523
       7 -> 29         0.30138
       8 -> 33         0.39704

 Excited State 106:      Singlet-EU    18.3541 eV   67.55 nm  f=0.0081  <S**2>=0.000
       4 -> 17        -0.10422
       5 -> 25         0.47523
       7 -> 30         0.30139
       9 -> 33         0.39703

 Excited State 107:      Singlet-EU    18.4312 eV   67.27 nm  f=0.0000  <S**2>=0.000
       8 -> 34        -0.49920
       9 -> 35         0.49922

 Excited State 108:      Singlet-EU    18.4314 eV   67.27 nm  f=0.0000  <S**2>=0.000
       3 -> 10         0.22163
       7 -> 32         0.32290
       8 -> 35         0.41151
       9 -> 34         0.41147

 Excited State 109:      Singlet-EU    18.4397 eV   67.24 nm  f=0.0000  <S**2>=0.000
       8 -> 34         0.49800
       9 -> 35         0.49798

 Excited State 110:      Singlet-EU    18.4397 eV   67.24 nm  f=0.0000  <S**2>=0.000
       8 -> 35        -0.49797
       9 -> 34         0.49801

 Excited State 111:      Singlet-A1G   18.5851 eV   66.71 nm  f=0.0000  <S**2>=0.000
       3 -> 10        -0.17183
       7 -> 32         0.62427
       8 -> 35        -0.19457
       9 -> 34        -0.19455

 Excited State 112:      Singlet-EU    18.6010 eV   66.65 nm  f=0.1849  <S**2>=0.000
       5 -> 28        -0.14626
       6 -> 25         0.46269
       6 -> 27        -0.14626
       7 -> 29        -0.37145
       8 -> 33        -0.24831

 Excited State 113:      Singlet-EU    18.6010 eV   66.65 nm  f=0.1849  <S**2>=0.000
       5 -> 25         0.46270
       5 -> 27         0.14626
       6 -> 28        -0.14626
       7 -> 30        -0.37144
       9 -> 33        -0.24831

 Excited State 114:      Singlet-A2U   18.6285 eV   66.56 nm  f=0.1152  <S**2>=0.000
       4 -> 16         0.70420

 Excited State 115:      Singlet-EG    18.8005 eV   65.95 nm  f=0.0000  <S**2>=0.000
       5 -> 26         0.69426

 Excited State 116:      Singlet-EG    18.8005 eV   65.95 nm  f=0.0000  <S**2>=0.000
       6 -> 26         0.69426

 Excited State 117:      Singlet-A1G   18.9090 eV   65.57 nm  f=0.0000  <S**2>=0.000
       3 -> 10         0.60199
       4 -> 19        -0.18328
       5 -> 30        -0.10906
       6 -> 29        -0.10906
       8 -> 35        -0.15280
       9 -> 34        -0.15279

 Excited State 118:      Singlet-EG    18.9465 eV   65.44 nm  f=0.0000  <S**2>=0.000
       8 -> 36         0.69697

 Excited State 119:      Singlet-EG    18.9465 eV   65.44 nm  f=0.0000  <S**2>=0.000
       9 -> 36         0.69697

 Excited State 120:      Singlet-EU    19.0019 eV   65.25 nm  f=0.0598  <S**2>=0.000
       4 -> 17         0.69342

 Excited State 121:      Singlet-EU    19.0019 eV   65.25 nm  f=0.0598  <S**2>=0.000
       4 -> 18         0.69342

 Excited State 122:      Singlet-EG    19.2314 eV   64.47 nm  f=0.0000  <S**2>=0.000
       7 -> 35         0.70450

 The electronic state is 1-A1G.
 Alpha  occ. eigenvalues --   -9.88480  -9.88479  -0.67708  -0.54732  -0.38759
 Alpha  occ. eigenvalues --   -0.38759  -0.32787  -0.29900  -0.29900
 Alpha virt. eigenvalues --    0.00931   0.04067   0.07948   0.07948   0.09934
 Alpha virt. eigenvalues --    0.09934   0.13567   0.14762   0.14762   0.16678
 Alpha virt. eigenvalues --    0.16864   0.16864   0.22560   0.22560   0.26642

 Mulliken charges:
               1
     1  C    0.114011
     2  C    0.114011
     3  H   -0.038004
     4  H   -0.038004
     5  H   -0.038004
     6  H   -0.038004
     7  H   -0.038004
     8  H   -0.038004
 Sum of Mulliken charges =  -0.00000

 Dipole moment (field-independent basis, Debye):
    X=              0.0000    Y=             -0.0000    Z=              0.0000  Tot=              0.0000
 Quadrupole moment (field-independent basis, Debye-Ang):
   XX=            -15.0310   YY=            -15.0310   ZZ=            -15.7729
   XY=             -0.0000   XZ=              0.0000   YZ=             -0.0000

 Normal termination of Gaussian 16 at Mon Mar 21 20:11:53 2022.
