 Gaussian 16, Revision C.01,
 Gaussian 16:  EM64L-G16RevC.01  3-Jul-2019

 ----------------------------------------------------------------------
 #P TD(Nstates=10000) pbepbe/Gen SCF(maxcycles=100) Int(Grid=ultrafine)
 ----------------------------------------------------------------------

 ---------------------
 xGDB7_00001_tier4.com
 ---------------------
 Symbolic Z-matrix:
 Charge =  0 Multiplicity = 1

                         Standard orientation:
 ---------------------------------------------------------------------
 Center     Atomic      Atomic             Coordinates (Angstroms)
 Number     Number       Type             X           Y           Z
 ---------------------------------------------------------------------
      1          9           0       -1.139724   -0.269725    0.000000
      2          6           0        0.000000    0.430281    0.000000
      3          6           0        1.180852   -0.148760    0.000000
      4          1           0       -0.180450    1.498331    0.000000
      5          1           0        1.283634   -1.225170    0.000000
      6          1           0        2.069222    0.465238    0.000000
 ---------------------------------------------------------------------

 SCF Done:  E(RPBE-PBE) =  -177.502303199     A.U. after   13 cycles

 Excitation energies and oscillator strengths:

 Excited State   1:      Singlet-A"     7.0144 eV  176.76 nm  f=0.0340  <S**2>=0.000
      12 -> 14         0.70657
 This state for optimization and/or second-order correction.
 Total Energy, E(TD-HF/TD-DFT) =  -177.244528782
 Copying the excited state density for this state as the 1-particle RhoCI density.

 Excited State   2:      Singlet-A"     7.5803 eV  163.56 nm  f=0.0076  <S**2>=0.000
      12 -> 15         0.70608

 Excited State   3:      Singlet-A'     7.5861 eV  163.44 nm  f=0.2770  <S**2>=0.000
      12 -> 13         0.68597

 Excited State   4:      Singlet-A"     8.1402 eV  152.31 nm  f=0.0000  <S**2>=0.000
      11 -> 13         0.69882

 Excited State   5:      Singlet-A"     8.3715 eV  148.10 nm  f=0.0011  <S**2>=0.000
      12 -> 16         0.69622

 Excited State   6:      Singlet-A"     8.8342 eV  140.35 nm  f=0.0007  <S**2>=0.000
      12 -> 17         0.69892

 Excited State   7:      Singlet-A"     9.3447 eV  132.68 nm  f=0.0003  <S**2>=0.000
      10 -> 13         0.69820

 Excited State   8:      Singlet-A'     9.3883 eV  132.06 nm  f=0.0083  <S**2>=0.000
      11 -> 14         0.70259

 Excited State   9:      Singlet-A"     9.6379 eV  128.64 nm  f=0.0065  <S**2>=0.000
      12 -> 18         0.70354

 Excited State  10:      Singlet-A'     9.9113 eV  125.09 nm  f=0.0257  <S**2>=0.000
      11 -> 15         0.52988
      12 -> 19         0.45560

 Excited State  11:      Singlet-A'     9.9540 eV  124.56 nm  f=0.0474  <S**2>=0.000
      11 -> 15        -0.46049
      12 -> 19         0.51997

 Excited State  12:      Singlet-A"    10.3032 eV  120.34 nm  f=0.1114  <S**2>=0.000
       8 -> 13        -0.12857
      12 -> 20         0.68891

 Excited State  13:      Singlet-A'    10.5314 eV  117.73 nm  f=0.1062  <S**2>=0.000
      10 -> 14         0.69618

 Excited State  14:      Singlet-A"    10.7137 eV  115.72 nm  f=0.0016  <S**2>=0.000
      12 -> 21         0.70610

 Excited State  15:      Singlet-A'    10.7865 eV  114.94 nm  f=0.0248  <S**2>=0.000
      11 -> 16         0.66258
      12 -> 22        -0.20101

 Excited State  16:      Singlet-A'    11.0519 eV  112.18 nm  f=0.0195  <S**2>=0.000
       9 -> 13         0.50036
      10 -> 15         0.32079
      11 -> 16         0.10999
      12 -> 22         0.31525

 Excited State  17:      Singlet-A'    11.1173 eV  111.52 nm  f=0.0749  <S**2>=0.000
       9 -> 13        -0.10785
      10 -> 15         0.57463
      12 -> 22        -0.36206

 Excited State  18:      Singlet-A'    11.1408 eV  111.29 nm  f=0.0583  <S**2>=0.000
       9 -> 13        -0.35028
      10 -> 15         0.17953
      11 -> 16         0.18628
      11 -> 17         0.44952
      12 -> 22         0.29717

 Excited State  19:      Singlet-A"    11.2705 eV  110.01 nm  f=0.0125  <S**2>=0.000
       8 -> 13         0.49905
      12 -> 23         0.48714

 Excited State  20:      Singlet-A'    11.2947 eV  109.77 nm  f=0.1872  <S**2>=0.000
       9 -> 13         0.24912
      10 -> 15        -0.12431
      11 -> 17         0.52575
      12 -> 22        -0.34090

 Excited State  21:      Singlet-A"    11.3623 eV  109.12 nm  f=0.0086  <S**2>=0.000
       8 -> 13        -0.47173
      12 -> 23         0.51036

 Excited State  22:      Singlet-A"    11.6795 eV  106.16 nm  f=0.0440  <S**2>=0.000
       9 -> 14         0.70328

 Excited State  23:      Singlet-A'    11.8510 eV  104.62 nm  f=0.0600  <S**2>=0.000
      10 -> 16         0.65232
      10 -> 17        -0.14225
      11 -> 18         0.13073
      12 -> 24        -0.11292

 Excited State  24:      Singlet-A'    12.0303 eV  103.06 nm  f=0.0020  <S**2>=0.000
      10 -> 16        -0.11977
      11 -> 18         0.68319

 Excited State  25:      Singlet-A"    12.1339 eV  102.18 nm  f=0.0178  <S**2>=0.000
      11 -> 19         0.70191

 Excited State  26:      Singlet-A"    12.2058 eV  101.58 nm  f=0.0024  <S**2>=0.000
       9 -> 15         0.70416

 Excited State  27:      Singlet-A'    12.3721 eV  100.21 nm  f=0.0986  <S**2>=0.000
       8 -> 14        -0.35870
      10 -> 17         0.33400
      12 -> 24         0.47239

 Excited State  28:      Singlet-A'    12.4452 eV   99.62 nm  f=0.0704  <S**2>=0.000
       8 -> 14         0.56522
      10 -> 16         0.15235
      10 -> 17         0.32958
      12 -> 24         0.13757

 Excited State  29:      Singlet-A"    12.4684 eV   99.44 nm  f=0.0073  <S**2>=0.000
       7 -> 13         0.69319

 Excited State  30:      Singlet-A'    12.5198 eV   99.03 nm  f=0.0002  <S**2>=0.000
      10 -> 17         0.16579
      11 -> 20         0.66739
      12 -> 24        -0.11797

 Excited State  31:      Singlet-A'    12.7140 eV   97.52 nm  f=0.0067  <S**2>=0.000
       8 -> 14        -0.10866
       8 -> 15         0.37198
      10 -> 17         0.35681
      10 -> 18         0.13960
      11 -> 20        -0.19866
      12 -> 24        -0.35660
      12 -> 27        -0.10821

 Excited State  32:      Singlet-A"    12.8170 eV   96.73 nm  f=0.0180  <S**2>=0.000
       9 -> 16         0.10130
      12 -> 25         0.68762

 Excited State  33:      Singlet-A'    13.0711 eV   94.85 nm  f=0.0836  <S**2>=0.000
       8 -> 15        -0.20591
      10 -> 18        -0.13842
      11 -> 21         0.63778
      12 -> 27        -0.10953

 Excited State  34:      Singlet-A'    13.0938 eV   94.69 nm  f=0.1232  <S**2>=0.000
       8 -> 15         0.50633
       8 -> 16        -0.14041
      10 -> 17        -0.17093
      10 -> 18        -0.30020
      10 -> 20         0.15129
      11 -> 21         0.16065
      12 -> 24         0.15140

 Excited State  35:      Singlet-A"    13.1160 eV   94.53 nm  f=0.0055  <S**2>=0.000
       9 -> 16         0.51452
      11 -> 22        -0.11492
      12 -> 26         0.45470

 Excited State  36:      Singlet-A"    13.1280 eV   94.44 nm  f=0.0218  <S**2>=0.000
       9 -> 16        -0.42793
      12 -> 25         0.11547
      12 -> 26         0.52471

 Excited State  37:      Singlet-A'    13.1811 eV   94.06 nm  f=0.0184  <S**2>=0.000
       7 -> 14        -0.12670
      10 -> 18         0.42364
      11 -> 21         0.20072
      11 -> 23        -0.13184
      12 -> 27         0.46320

 Excited State  38:      Singlet-A"    13.2358 eV   93.67 nm  f=0.0079  <S**2>=0.000
      10 -> 19         0.70215

 Excited State  39:      Singlet-A"    13.3104 eV   93.15 nm  f=0.0059  <S**2>=0.000
       9 -> 16         0.13079
      11 -> 22         0.69013

 Excited State  40:      Singlet-A'    13.4697 eV   92.05 nm  f=0.0370  <S**2>=0.000
       8 -> 14        -0.10644
       8 -> 15        -0.14444
      10 -> 17         0.15653
      10 -> 18        -0.36339
      12 -> 24        -0.19350
      12 -> 27         0.46300

 Excited State  41:      Singlet-A"    13.4868 eV   91.93 nm  f=0.0129  <S**2>=0.000
       9 -> 17         0.70169

 Excited State  42:      Singlet-A'    13.6109 eV   91.09 nm  f=0.0060  <S**2>=0.000
       7 -> 14        -0.25861
       8 -> 16         0.45606
      10 -> 20         0.30171
      11 -> 23         0.35933

 Excited State  43:      Singlet-A'    13.7422 eV   90.22 nm  f=0.0350  <S**2>=0.000
       7 -> 14         0.41271
      10 -> 20         0.50288
      10 -> 21        -0.10618
      11 -> 23        -0.18451

 Excited State  44:      Singlet-A'    13.7738 eV   90.01 nm  f=0.0339  <S**2>=0.000
       7 -> 14         0.41008
       7 -> 15         0.22252
       8 -> 17         0.10833
       9 -> 19         0.12953
      10 -> 20        -0.21749
      11 -> 23         0.41652

 Excited State  45:      Singlet-A'    13.8469 eV   89.54 nm  f=0.0426  <S**2>=0.000
       7 -> 14         0.12995
       8 -> 15         0.11733
       8 -> 16         0.46911
       8 -> 17        -0.18560
      10 -> 20        -0.20967
      10 -> 21         0.18305
      11 -> 23        -0.31026

 Excited State  46:      Singlet-A'    14.2349 eV   87.10 nm  f=0.0523  <S**2>=0.000
       7 -> 15        -0.25819
       8 -> 17         0.55823
      10 -> 21         0.28651
      10 -> 23        -0.11262

 Excited State  47:      Singlet-A'    14.2816 eV   86.81 nm  f=0.0160  <S**2>=0.000
       7 -> 14        -0.14484
       7 -> 15         0.54803
       8 -> 17         0.22822
       9 -> 19        -0.31260

 Excited State  48:      Singlet-A"    14.2902 eV   86.76 nm  f=0.0000  <S**2>=0.000
       9 -> 18         0.70402

 Excited State  49:      Singlet-A"    14.3999 eV   86.10 nm  f=0.0060  <S**2>=0.000
       6 -> 13        -0.31055
      10 -> 22         0.60491
      12 -> 28        -0.14960

 Excited State  50:      Singlet-A"    14.4995 eV   85.51 nm  f=0.0095  <S**2>=0.000
       6 -> 13        -0.17122
      10 -> 22        -0.26421
      11 -> 24         0.47305
      12 -> 28        -0.41153

 Excited State  51:      Singlet-A"    14.5210 eV   85.38 nm  f=0.0138  <S**2>=0.000
      11 -> 24         0.49311
      12 -> 28         0.49718

 Excited State  52:      Singlet-A'    14.5664 eV   85.12 nm  f=0.1554  <S**2>=0.000
       7 -> 15         0.16557
       7 -> 17        -0.12130
       8 -> 16        -0.12511
       8 -> 17        -0.14298
       9 -> 19         0.24368
      10 -> 20         0.14632
      10 -> 21         0.51058
      11 -> 25         0.13385

 Excited State  53:      Singlet-A'    14.7086 eV   84.29 nm  f=0.0050  <S**2>=0.000
       7 -> 15         0.13457
       7 -> 16         0.15866
       8 -> 17         0.15062
       8 -> 18        -0.26156
       9 -> 19         0.50429
      10 -> 21        -0.17061
      11 -> 25        -0.14989

 Excited State  54:      Singlet-A"    14.7386 eV   84.12 nm  f=0.0042  <S**2>=0.000
       6 -> 13        -0.32191
       9 -> 20         0.56018
      10 -> 22        -0.14806
      11 -> 24        -0.10437
      12 -> 28         0.19200

 Excited State  55:      Singlet-A'    14.8640 eV   83.41 nm  f=0.0139  <S**2>=0.000
       7 -> 16         0.36193
       8 -> 18         0.10469
      10 -> 23         0.57252

 Excited State  56:      Singlet-A"    15.0459 eV   82.40 nm  f=0.0740  <S**2>=0.000
       6 -> 13         0.38658
       8 -> 19        -0.27609
       9 -> 20         0.38080
      10 -> 22         0.13869
      12 -> 28        -0.13370
      12 -> 30         0.19253

 Excited State  57:      Singlet-A'    15.0613 eV   82.32 nm  f=0.0604  <S**2>=0.000
       7 -> 17        -0.12012
       8 -> 18         0.54004
      10 -> 23        -0.12730
      11 -> 25        -0.36373
      11 -> 26         0.10183

 Excited State  58:      Singlet-A"    15.1492 eV   81.84 nm  f=0.0020  <S**2>=0.000
       6 -> 13         0.11787
       8 -> 19         0.49814
      12 -> 29        -0.46410
      12 -> 30         0.10578

 Excited State  59:      Singlet-A'    15.1504 eV   81.84 nm  f=0.2335  <S**2>=0.000
       7 -> 16         0.49642
       7 -> 17        -0.11255
       8 -> 21        -0.10260
      10 -> 23        -0.28711
      11 -> 25         0.26671
      12 -> 31         0.14309

 Excited State  60:      Singlet-A"    15.1748 eV   81.70 nm  f=0.0666  <S**2>=0.000
       8 -> 19         0.40225
      12 -> 29         0.52160
      12 -> 30         0.17118

 Excited State  61:      Singlet-A'    15.2777 eV   81.15 nm  f=0.0913  <S**2>=0.000
       6 -> 14         0.16527
       7 -> 16        -0.12999
       7 -> 17         0.11327
       8 -> 18         0.31008
       8 -> 20         0.19840
       9 -> 19         0.15654
      10 -> 21        -0.12323
      11 -> 25         0.46463

 Excited State  62:      Singlet-A"    15.3509 eV   80.77 nm  f=0.0277  <S**2>=0.000
       6 -> 13        -0.10088
       9 -> 21        -0.36111
      11 -> 27         0.14926
      12 -> 30         0.55470

 Excited State  63:      Singlet-A"    15.3893 eV   80.57 nm  f=0.0167  <S**2>=0.000
       9 -> 21         0.59088
      11 -> 27         0.21146
      12 -> 30         0.26813

 Excited State  64:      Singlet-A'    15.4568 eV   80.21 nm  f=0.0266  <S**2>=0.000
       6 -> 14         0.46264
       7 -> 17        -0.25495
      12 -> 31        -0.44122

 Excited State  65:      Singlet-A'    15.4778 eV   80.10 nm  f=0.0082  <S**2>=0.000
       6 -> 14        -0.17698
       7 -> 17         0.11296
       9 -> 22        -0.20642
      11 -> 26         0.57361
      12 -> 31        -0.27423

 Excited State  66:      Singlet-A"    15.4799 eV   80.09 nm  f=0.0602  <S**2>=0.000
       6 -> 13         0.11442
      10 -> 24         0.10586
      11 -> 27         0.64515
      12 -> 30        -0.15956

 Excited State  67:      Singlet-A'    15.5423 eV   79.77 nm  f=0.0699  <S**2>=0.000
       6 -> 14         0.21359
       7 -> 16        -0.14546
       7 -> 17        -0.25835
       8 -> 20        -0.28905
       8 -> 21         0.12916
      11 -> 26         0.30064
      12 -> 31         0.37157

 Excited State  68:      Singlet-A'    15.5589 eV   79.69 nm  f=0.0730  <S**2>=0.000
       6 -> 14         0.37529
       7 -> 17         0.28301
       8 -> 20         0.32527
       9 -> 22        -0.21365
      10 -> 21         0.11623
      11 -> 25        -0.14070
      11 -> 26         0.11151
      12 -> 31         0.20331

 Excited State  69:      Singlet-A"    15.6346 eV   79.30 nm  f=0.0342  <S**2>=0.000
       6 -> 13        -0.10302
      10 -> 24         0.67582

 Excited State  70:      Singlet-A'    15.7147 eV   78.90 nm  f=0.0548  <S**2>=0.000
       6 -> 15         0.21647
       7 -> 17        -0.23987
       8 -> 20         0.41951
       9 -> 22         0.36525
      11 -> 26         0.17687

 Excited State  71:      Singlet-A"    15.8376 eV   78.28 nm  f=0.0091  <S**2>=0.000
      12 -> 32         0.69867

 Excited State  72:      Singlet-A'    15.8496 eV   78.23 nm  f=0.0043  <S**2>=0.000
       6 -> 15        -0.19840
       7 -> 17         0.29933
       7 -> 18         0.10535
       8 -> 20        -0.17123
       9 -> 22         0.48012
      10 -> 25         0.12705
      12 -> 31        -0.10024

 Excited State  73:      Singlet-A"    15.9604 eV   77.68 nm  f=0.0187  <S**2>=0.000
       9 -> 23         0.69381

 Excited State  74:      Singlet-A'    16.1470 eV   76.78 nm  f=0.0170  <S**2>=0.000
       6 -> 15         0.24475
       7 -> 18        -0.31966
       8 -> 21         0.46990
      10 -> 25         0.29897

 Excited State  75:      Singlet-A'    16.1789 eV   76.63 nm  f=0.0016  <S**2>=0.000
       6 -> 15         0.51193
       7 -> 17         0.12424
       7 -> 18         0.34710
       8 -> 20        -0.13159
       8 -> 21        -0.13243
       8 -> 23        -0.13434
      10 -> 26         0.11952

 Excited State  76:      Singlet-A'    16.2535 eV   76.28 nm  f=0.0249  <S**2>=0.000
       6 -> 15        -0.11722
       7 -> 18         0.12474
       8 -> 21        -0.20599
      10 -> 25         0.60396
      10 -> 26        -0.13776

 Excited State  77:      Singlet-A"    16.3114 eV   76.01 nm  f=0.0137  <S**2>=0.000
       7 -> 19        -0.10399
       8 -> 22         0.68494
      12 -> 33        -0.12341

 Excited State  78:      Singlet-A'    16.3877 eV   75.66 nm  f=0.0713  <S**2>=0.000
       6 -> 15        -0.11160
       7 -> 18         0.47917
       8 -> 20         0.11903
       8 -> 21         0.38803
      10 -> 26        -0.12644
      12 -> 34         0.10132

 Excited State  79:      Singlet-A"    16.3879 eV   75.66 nm  f=0.0246  <S**2>=0.000
       7 -> 19         0.69033
      12 -> 33        -0.11219

 Excited State  80:      Singlet-A"    16.5788 eV   74.78 nm  f=0.0083  <S**2>=0.000
      10 -> 27         0.55141
      12 -> 33         0.43427

 Excited State  81:      Singlet-A'    16.6181 eV   74.61 nm  f=0.0071  <S**2>=0.000
       6 -> 15        -0.12215
       9 -> 24         0.10299
      10 -> 26         0.63312
      11 -> 28         0.10880

 Excited State  82:      Singlet-A"    16.7043 eV   74.22 nm  f=0.1766  <S**2>=0.000
       7 -> 22        -0.10386
      10 -> 27        -0.42130
      12 -> 33         0.50708

 Excited State  83:      Singlet-A'    16.7197 eV   74.15 nm  f=0.0300  <S**2>=0.000
       6 -> 16        -0.14230
       8 -> 23         0.63807
      11 -> 28         0.19629

 Excited State  84:      Singlet-A'    16.7988 eV   73.81 nm  f=0.0255  <S**2>=0.000
       7 -> 20         0.62532
       9 -> 24        -0.26854

 Excited State  85:      Singlet-A'    16.8810 eV   73.45 nm  f=0.0129  <S**2>=0.000
       6 -> 16        -0.35568
       7 -> 20         0.22244
       9 -> 24         0.52743

 Excited State  86:      Singlet-A'    16.9542 eV   73.13 nm  f=0.0773  <S**2>=0.000
       6 -> 16        -0.24922
       6 -> 17         0.18756
       7 -> 21         0.16741
       8 -> 23        -0.18925
       9 -> 24        -0.24388
      11 -> 28         0.49937

 Excited State  87:      Singlet-A'    17.1516 eV   72.29 nm  f=0.0105  <S**2>=0.000
       6 -> 16         0.44501
       7 -> 20         0.14419
       9 -> 24         0.25647
      11 -> 28         0.32934
      11 -> 29        -0.13270
      11 -> 30        -0.12711
      12 -> 34         0.11872

 Excited State  88:      Singlet-A'    17.3476 eV   71.47 nm  f=0.0353  <S**2>=0.000
       6 -> 16         0.16957
       6 -> 17         0.60266
       7 -> 21        -0.21366
      12 -> 34        -0.20383

 Excited State  89:      Singlet-A'    17.3923 eV   71.29 nm  f=0.0758  <S**2>=0.000
       7 -> 21        -0.42996
      11 -> 29         0.10042
      11 -> 30         0.16331
      12 -> 34         0.49704

 Excited State  90:      Singlet-A"    17.4180 eV   71.18 nm  f=0.0034  <S**2>=0.000
       7 -> 22        -0.15053
       9 -> 25         0.65865
       9 -> 26        -0.13328

 Excited State  91:      Singlet-A"    17.5091 eV   70.81 nm  f=0.0182  <S**2>=0.000
       8 -> 24         0.68100
      12 -> 35        -0.15604

 Excited State  92:      Singlet-A'    17.5122 eV   70.80 nm  f=0.0126  <S**2>=0.000
      11 -> 29         0.66445
      11 -> 30        -0.11928

 Excited State  93:      Singlet-A"    17.5409 eV   70.68 nm  f=0.0054  <S**2>=0.000
       7 -> 22         0.41257
       8 -> 24         0.15936
      12 -> 35         0.54665

 Excited State  94:      Singlet-A'    17.6351 eV   70.31 nm  f=0.0406  <S**2>=0.000
       6 -> 17        -0.10314
       7 -> 23        -0.15753
      11 -> 28         0.11436
      11 -> 30         0.58271
      12 -> 34        -0.24655

 Excited State  95:      Singlet-A"    17.6700 eV   70.17 nm  f=0.1233  <S**2>=0.000
       7 -> 22         0.47901
       9 -> 25         0.13332
      11 -> 31        -0.10727
      12 -> 35        -0.38018
      12 -> 36        -0.25407

 Excited State  96:      Singlet-A'    17.7044 eV   70.03 nm  f=0.0326  <S**2>=0.000
       6 -> 17         0.16648
       7 -> 21         0.33166
       7 -> 23        -0.10422
       8 -> 25        -0.10113
       8 -> 26        -0.13127
       9 -> 27         0.39900
      11 -> 28        -0.10181
      11 -> 30         0.23631
      12 -> 34         0.22566

 Excited State  97:      Singlet-A"    17.8004 eV   69.65 nm  f=0.0174  <S**2>=0.000
       9 -> 26         0.58710
      12 -> 36        -0.35849

 Excited State  98:      Singlet-A"    17.8169 eV   69.59 nm  f=0.0049  <S**2>=0.000
       9 -> 26        -0.19246
      11 -> 31         0.58641
      12 -> 36        -0.33232

 Excited State  99:      Singlet-A'    17.8720 eV   69.37 nm  f=0.0033  <S**2>=0.000
       7 -> 23         0.45453
       8 -> 25         0.12738
       9 -> 27         0.39968
      10 -> 28         0.27144

 Excited State 100:      Singlet-A"    17.9436 eV   69.10 nm  f=0.0404  <S**2>=0.000
       7 -> 22         0.17846
       9 -> 25         0.12212
       9 -> 26         0.29938
      11 -> 31         0.35765
      12 -> 36         0.39458
      12 -> 37         0.22733

 Excited State 101:      Singlet-A'    17.9856 eV   68.94 nm  f=0.0041  <S**2>=0.000
       6 -> 17         0.10298
       7 -> 21         0.22134
       7 -> 23         0.20518
       8 -> 26        -0.18539
       9 -> 27        -0.36705
      10 -> 28         0.38621
      11 -> 30         0.13204

 Excited State 102:      Singlet-A'    18.0403 eV   68.73 nm  f=0.0086  <S**2>=0.000
       6 -> 18        -0.25344
       7 -> 23        -0.38874
       8 -> 25         0.14260
       9 -> 27         0.14845
      10 -> 28         0.43270
      10 -> 29        -0.11402

 Excited State 103:      Singlet-A"    18.1241 eV   68.41 nm  f=0.0301  <S**2>=0.000
       5 -> 13         0.15533
      11 -> 31        -0.10834
      12 -> 36        -0.15577
      12 -> 37         0.63657

 Excited State 104:      Singlet-A'    18.1537 eV   68.30 nm  f=0.0369  <S**2>=0.000
       6 -> 18         0.61900
       7 -> 23        -0.17217
      10 -> 28         0.16521
      11 -> 32         0.10674
      12 -> 38        -0.10857

 Excited State 105:      Singlet-A'    18.2222 eV   68.04 nm  f=0.0317  <S**2>=0.000
       6 -> 18        -0.14524
       8 -> 26        -0.18179
      11 -> 32         0.62248
      12 -> 38        -0.19610

 Excited State 106:      Singlet-A"    18.2276 eV   68.02 nm  f=0.0005  <S**2>=0.000
       6 -> 19         0.70088

 Excited State 107:      Singlet-A'    18.2560 eV   67.91 nm  f=0.2205  <S**2>=0.000
       6 -> 20        -0.11267
       8 -> 25         0.55036

 The electronic state is 1-A'.
 Alpha  occ. eigenvalues --  -24.29089  -9.98203  -9.90047  -1.11830  -0.69785
 Alpha  occ. eigenvalues --   -0.55042  -0.48289  -0.43678  -0.41246  -0.36755
 Alpha  occ. eigenvalues --   -0.32673  -0.24158
 Alpha virt. eigenvalues --   -0.03184   0.01511   0.03573   0.06153   0.08205
 Alpha virt. eigenvalues --    0.11271   0.11932   0.13265   0.15154   0.16202
 Alpha virt. eigenvalues --    0.17364   0.20734   0.22566   0.23968   0.24272

 Mulliken charges:
               1
     1  F   -0.401603
     2  C    0.626893
     3  C    0.110718
     4  H   -0.162720
     5  H   -0.143213
     6  H   -0.030075
 Sum of Mulliken charges =  -0.00000

 Dipole moment (field-independent basis, Debye):
    X=              1.0654    Y=              0.7151    Z=              0.0000  Tot=              1.2831
 Quadrupole moment (field-independent basis, Debye-Ang):
   XX=            -17.8289   YY=            -15.9003   ZZ=            -19.0446
   XY=             -0.7661   XZ=              0.0000   YZ=              0.0000

 Normal termination of Gaussian 16 at Mon Mar 21 20:21:02 2022.
