 Gaussian 16, Revision C.01,
 Gaussian 16:  EM64L-G16RevC.01  3-Jul-2019

 ----------------------------------------------------------------------
 #P TD(Nstates=10000) pbepbe/Gen SCF(maxcycles=100) Int(Grid=ultrafine)
 ----------------------------------------------------------------------

 ---------------------
 xGDB7_00001_tier4.com
 ---------------------
 Symbolic Z-matrix:
 Charge =  0 Multiplicity = 1

                         Standard orientation:
 ---------------------------------------------------------------------
 Center     Atomic      Atomic             Coordinates (Angstroms)
 Number     Number       Type             X           Y           Z
 ---------------------------------------------------------------------
      1          8           0        0.000000   -0.000000    0.116015
      2          1           0        0.000000    0.761895   -0.464058
      3          1           0       -0.000000   -0.761895   -0.464058
 ---------------------------------------------------------------------

 SCF Done:  E(RPBE-PBE) =  -76.2955362024     A.U. after   10 cycles

 Excitation energies and oscillator strengths:

 Excited State   1:      Singlet-B1     6.9976 eV  177.18 nm  f=0.0560  <S**2>=0.000
       5 ->  6         0.70663
 This state for optimization and/or second-order correction.
 Total Energy, E(TD-HF/TD-DFT) =  -76.0383794186
 Copying the excited state density for this state as the 1-particle RhoCI density.

 Excited State   2:      Singlet-A2     8.7430 eV  141.81 nm  f=0.0000  <S**2>=0.000
       5 ->  7         0.70676

 Excited State   3:      Singlet-A1     9.0431 eV  137.10 nm  f=0.0970  <S**2>=0.000
       4 ->  6         0.69837

 Excited State   4:      Singlet-B1    10.1773 eV  121.82 nm  f=0.0035  <S**2>=0.000
       5 ->  9         0.70672

 Excited State   5:      Singlet-A1    10.5591 eV  117.42 nm  f=0.0003  <S**2>=0.000
       4 ->  9        -0.15233
       5 ->  8         0.67603

 Excited State   6:      Singlet-B2    10.8138 eV  114.65 nm  f=0.0130  <S**2>=0.000
       4 ->  7         0.70328

 Excited State   7:      Singlet-A2    11.2569 eV  110.14 nm  f=0.0000  <S**2>=0.000
       5 -> 10         0.70666

 Excited State   8:      Singlet-B1    11.9833 eV  103.46 nm  f=0.0476  <S**2>=0.000
       4 ->  8         0.16902
       5 -> 11         0.68467

 Excited State   9:      Singlet-B1    12.1515 eV  102.03 nm  f=0.0001  <S**2>=0.000
       4 ->  8         0.68619
       5 -> 11        -0.16745

 Excited State  10:      Singlet-A1    12.5273 eV   98.97 nm  f=0.0341  <S**2>=0.000
       3 ->  7        -0.11638
       4 ->  9         0.67136
       5 ->  8         0.11810
       5 -> 14         0.10078

 Excited State  11:      Singlet-B2    13.0498 eV   95.01 nm  f=0.0000  <S**2>=0.000
       3 ->  6        -0.40476
       4 -> 10        -0.11049
       5 -> 12         0.56899

 Excited State  12:      Singlet-B2    13.1103 eV   94.57 nm  f=0.0787  <S**2>=0.000
       3 ->  6         0.53329
       4 -> 10        -0.34052
       5 -> 12         0.31380

 Excited State  13:      Singlet-B1    13.5746 eV   91.34 nm  f=0.0668  <S**2>=0.000
       5 -> 13         0.70384

 Excited State  14:      Singlet-B2    13.7016 eV   90.49 nm  f=0.3376  <S**2>=0.000
       3 ->  6         0.21939
       4 -> 10         0.60044
       5 -> 12         0.27245

 Excited State  15:      Singlet-A1    13.9747 eV   88.72 nm  f=0.0661  <S**2>=0.000
       4 -> 11         0.69528

 Excited State  16:      Singlet-A1    14.3914 eV   86.15 nm  f=0.0247  <S**2>=0.000
       3 ->  7         0.24542
       4 -> 13         0.13035
       5 -> 14         0.64421

 Excited State  17:      Singlet-A2    15.0890 eV   82.17 nm  f=0.0000  <S**2>=0.000
       4 -> 12         0.70676

 Excited State  18:      Singlet-A1    15.2029 eV   81.55 nm  f=0.0005  <S**2>=0.000
       3 ->  7         0.53045
       4 -> 13        -0.44555
       5 -> 14        -0.10128

 Excited State  19:      Singlet-A2    16.1750 eV   76.65 nm  f=0.0000  <S**2>=0.000
       3 ->  8         0.69931
       5 -> 16        -0.10402

 Excited State  20:      Singlet-B2    16.2642 eV   76.23 nm  f=0.0288  <S**2>=0.000
       3 ->  9         0.70481

 Excited State  21:      Singlet-B1    16.3426 eV   75.87 nm  f=0.0004  <S**2>=0.000
       4 -> 14         0.52645
       5 -> 15         0.46839

 Excited State  22:      Singlet-A2    16.4867 eV   75.20 nm  f=0.0000  <S**2>=0.000
       3 ->  8         0.10369
       5 -> 16         0.69785

 Excited State  23:      Singlet-A1    16.5017 eV   75.13 nm  f=0.0438  <S**2>=0.000
       3 ->  7         0.29841
       3 -> 10         0.36466
       4 ->  9         0.10689
       4 -> 13         0.46151
       5 -> 14        -0.17126

 Excited State  24:      Singlet-B1    16.5516 eV   74.91 nm  f=0.2103  <S**2>=0.000
       4 -> 14        -0.46566
       5 -> 15         0.52793

 Excited State  25:      Singlet-A2    17.3692 eV   71.38 nm  f=0.0000  <S**2>=0.000
       5 -> 17         0.70573

 Excited State  26:      Singlet-A1    18.0830 eV   68.56 nm  f=0.2315  <S**2>=0.000
       3 ->  7        -0.15837
       3 -> 10         0.52683
       3 -> 16         0.11716
       4 -> 13        -0.19933
       4 -> 15         0.33080
       5 -> 14         0.11430

 Excited State  27:      Singlet-B2    18.2556 eV   67.92 nm  f=0.1997  <S**2>=0.000
       3 -> 11         0.65473
       4 -> 16        -0.20278
       4 -> 17        -0.11871

 Excited State  28:      Singlet-A1    18.3591 eV   67.53 nm  f=0.0856  <S**2>=0.000
       3 -> 10        -0.27301
       4 -> 13         0.11405
       4 -> 15         0.62394

 Excited State  29:      Singlet-B2    18.5100 eV   66.98 nm  f=0.0141  <S**2>=0.000
       3 -> 11         0.15845
       4 -> 16         0.66053
       4 -> 17        -0.17703

 Excited State  30:      Singlet-B1    19.2312 eV   64.47 nm  f=0.1007  <S**2>=0.000
       3 -> 12         0.69962

 Excited State  31:      Singlet-B2    19.5259 eV   63.50 nm  f=0.0041  <S**2>=0.000
       3 -> 13        -0.49234
       4 -> 17         0.49510

 Excited State  32:      Singlet-B2    19.7340 eV   62.83 nm  f=0.0301  <S**2>=0.000
       3 -> 11         0.15745
       3 -> 13         0.49560
       4 -> 16         0.11053
       4 -> 17         0.44635

 Excited State  33:      Singlet-A2    20.3294 eV   60.99 nm  f=0.0000  <S**2>=0.000
       3 -> 14         0.70701

 Excited State  34:      Singlet-A2    20.7288 eV   59.81 nm  f=0.0000  <S**2>=0.000
       5 -> 18         0.70696

 Excited State  35:      Singlet-B1    21.5795 eV   57.45 nm  f=0.2169  <S**2>=0.000
       4 -> 20        -0.13507
       5 -> 19         0.68397

 Excited State  36:      Singlet-A1    22.3262 eV   55.53 nm  f=0.0823  <S**2>=0.000
       3 -> 16         0.12913
       4 -> 19         0.18550
       5 -> 20         0.65062

 Excited State  37:      Singlet-B2    22.4548 eV   55.21 nm  f=0.0204  <S**2>=0.000
       3 -> 15         0.68678
       4 -> 18         0.15332

 Excited State  38:      Singlet-A1    22.8227 eV   54.32 nm  f=0.0000  <S**2>=0.000
       3 -> 16         0.53980
       3 -> 17        -0.33358
       4 -> 19        -0.28149

 Excited State  39:      Singlet-B2    22.8452 eV   54.27 nm  f=0.0076  <S**2>=0.000
       3 -> 15        -0.12433
       4 -> 18         0.54994
       5 -> 22        -0.42414

 Excited State  40:      Singlet-B1    22.9927 eV   53.92 nm  f=0.0004  <S**2>=0.000
       5 -> 21         0.70286

 Excited State  41:      Singlet-A1    23.1706 eV   53.51 nm  f=0.0415  <S**2>=0.000
       2 ->  6        -0.10244
       3 -> 16         0.17923
       3 -> 17        -0.14870
       4 -> 19         0.61715
       5 -> 20        -0.20496

 Excited State  42:      Singlet-B2    23.9084 eV   51.86 nm  f=0.3556  <S**2>=0.000
       3 -> 19        -0.13460
       4 -> 18         0.38644
       5 -> 22         0.54384

 Excited State  43:      Singlet-A1    24.0577 eV   51.54 nm  f=0.0204  <S**2>=0.000
       2 ->  6        -0.32445
       3 -> 16         0.27516
       3 -> 17         0.53338
       4 -> 21         0.10563

 Excited State  44:      Singlet-B1    24.4449 eV   50.72 nm  f=0.2720  <S**2>=0.000
       4 -> 20         0.68602
       5 -> 19         0.12321

 Excited State  45:      Singlet-A2    25.1097 eV   49.38 nm  f=0.0000  <S**2>=0.000
       4 -> 22         0.70676

 Excited State  46:      Singlet-A1    25.3106 eV   48.99 nm  f=0.3196  <S**2>=0.000
       2 ->  6        -0.28238
       3 -> 16        -0.11301
       3 -> 17        -0.17703
       3 -> 18        -0.16323
       4 -> 21         0.57789

 Excited State  47:      Singlet-A1    25.9526 eV   47.77 nm  f=0.0002  <S**2>=0.000
       2 ->  6         0.50909
       3 -> 16         0.18731
       3 -> 17         0.14511
       3 -> 18        -0.20826
       4 -> 21         0.29352
       5 -> 20        -0.10584

 Excited State  48:      Singlet-B2    26.8554 eV   46.17 nm  f=0.0355  <S**2>=0.000
       2 ->  7         0.68213
       3 -> 19         0.15752

 Excited State  49:      Singlet-B2    27.5100 eV   45.07 nm  f=0.0938  <S**2>=0.000
       2 ->  7        -0.13384
       3 -> 19         0.65256
       3 -> 21         0.20095

 Excited State  50:      Singlet-A1    27.7184 eV   44.73 nm  f=0.2799  <S**2>=0.000
       2 ->  6         0.11305
       2 ->  9         0.29145
       3 -> 18         0.58681
       4 -> 21         0.18808

 Excited State  51:      Singlet-B1    28.1319 eV   44.07 nm  f=0.0122  <S**2>=0.000
       2 ->  8         0.69371
       3 -> 22         0.11949

 Excited State  52:      Singlet-A2    28.1623 eV   44.02 nm  f=0.0000  <S**2>=0.000
       3 -> 20         0.70688

 Excited State  53:      Singlet-A1    28.2112 eV   43.95 nm  f=0.0574  <S**2>=0.000
       2 ->  9         0.63830
       3 -> 18        -0.26350

 Excited State  54:      Singlet-B2    29.3054 eV   42.31 nm  f=0.0190  <S**2>=0.000
       2 -> 10         0.69970

 Excited State  55:      Singlet-B1    29.7216 eV   41.72 nm  f=0.2500  <S**2>=0.000
       2 ->  8        -0.10606
       3 -> 22         0.68608

 Excited State  56:      Singlet-B2    29.8579 eV   41.52 nm  f=0.2949  <S**2>=0.000
       3 -> 19        -0.15839
       3 -> 21         0.66386

 Excited State  57:      Singlet-A1    29.9992 eV   41.33 nm  f=0.0052  <S**2>=0.000
       2 -> 11         0.68934
       2 -> 13        -0.11546

 Excited State  58:      Singlet-B1    30.7549 eV   40.31 nm  f=0.0040  <S**2>=0.000
       5 -> 23         0.69666

 Excited State  59:      Singlet-A2    30.9923 eV   40.00 nm  f=0.0000  <S**2>=0.000
       2 -> 12         0.70699

 Excited State  60:      Singlet-A1    31.6969 eV   39.12 nm  f=0.0124  <S**2>=0.000
       2 -> 13         0.68102
       2 -> 15        -0.10680

 Excited State  61:      Singlet-B1    32.2462 eV   38.45 nm  f=0.0105  <S**2>=0.000
       2 -> 14         0.70393

 Excited State  62:      Singlet-A1    33.0312 eV   37.54 nm  f=0.0206  <S**2>=0.000
       2 -> 15        -0.17915
       4 -> 23         0.67053

 Excited State  63:      Singlet-A2    33.6658 eV   36.83 nm  f=0.0000  <S**2>=0.000
       5 -> 24         0.70680

 Excited State  64:      Singlet-B2    34.5336 eV   35.90 nm  f=0.0144  <S**2>=0.000
       2 -> 16         0.66894
       2 -> 17        -0.20272

 Excited State  65:      Singlet-A1    34.7859 eV   35.64 nm  f=0.0136  <S**2>=0.000
       2 -> 15         0.65136
       4 -> 23         0.13395
       5 -> 25         0.16890

 Excited State  66:      Singlet-B2    35.4606 eV   34.96 nm  f=0.0096  <S**2>=0.000
       2 -> 16         0.16308
       2 -> 17         0.64845
       3 -> 23        -0.15376
       4 -> 24         0.16330

 Excited State  67:      Singlet-B2    35.8708 eV   34.56 nm  f=0.0028  <S**2>=0.000
       2 -> 16        -0.13569
       2 -> 17        -0.15586
       3 -> 23        -0.10742
       4 -> 24         0.66412

 Excited State  68:      Singlet-B2    37.4608 eV   33.10 nm  f=0.0547  <S**2>=0.000
       2 -> 18         0.22007
       3 -> 23         0.64435
       4 -> 24         0.12725

 Excited State  69:      Singlet-B1    38.7426 eV   32.00 nm  f=0.0070  <S**2>=0.000
       5 -> 26         0.70530

 Excited State  70:      Singlet-A1    39.0663 eV   31.74 nm  f=0.0064  <S**2>=0.000
       2 -> 19         0.65274
       4 -> 26         0.14014
       5 -> 25        -0.22656

 Excited State  71:      Singlet-B2    39.0984 eV   31.71 nm  f=0.0045  <S**2>=0.000
       2 -> 18         0.66934
       3 -> 23        -0.19722

 Excited State  72:      Singlet-A1    39.1808 eV   31.64 nm  f=0.0026  <S**2>=0.000
       2 -> 19         0.23918
       3 -> 24         0.35655
       4 -> 26        -0.25547
       5 -> 25         0.49302

 Excited State  73:      Singlet-B1    40.1665 eV   30.87 nm  f=0.0004  <S**2>=0.000
       2 -> 20         0.62307
       4 -> 25         0.33369

 Excited State  74:      Singlet-B1    40.3150 eV   30.75 nm  f=0.0020  <S**2>=0.000
       2 -> 20        -0.33156
       4 -> 25         0.62156

 Excited State  75:      Singlet-A1    40.4250 eV   30.67 nm  f=0.0296  <S**2>=0.000
       2 -> 19        -0.11333
       3 -> 24         0.53660
       4 -> 26         0.42441
       5 -> 25        -0.10146

 Excited State  76:      Singlet-A2    41.2084 eV   30.09 nm  f=0.0000  <S**2>=0.000
       2 -> 22         0.70671

 Excited State  77:      Singlet-A1    41.2270 eV   30.07 nm  f=0.0031  <S**2>=0.000
       2 -> 21         0.70269

 Excited State  78:      Singlet-A2    44.1870 eV   28.06 nm  f=0.0000  <S**2>=0.000
       3 -> 25         0.70692

 Excited State  79:      Singlet-B2    44.8773 eV   27.63 nm  f=0.0600  <S**2>=0.000
       3 -> 26         0.70350

 Excited State  80:      Singlet-A1    46.4014 eV   26.72 nm  f=0.0035  <S**2>=0.000
       2 -> 23        -0.34791
       3 -> 24        -0.21270
       3 -> 27         0.14007
       4 -> 26         0.41668
       5 -> 25         0.31054

 Excited State  81:      Singlet-A2    46.9280 eV   26.42 nm  f=0.0000  <S**2>=0.000
       5 -> 27         0.70675

 Excited State  82:      Singlet-B2    49.1028 eV   25.25 nm  f=0.0330  <S**2>=0.000
       4 -> 27         0.68204
       5 -> 29         0.17957

 Excited State  83:      Singlet-B1    50.0577 eV   24.77 nm  f=0.0860  <S**2>=0.000
       5 -> 28         0.70339

 Excited State  84:      Singlet-A1    50.1012 eV   24.75 nm  f=0.0988  <S**2>=0.000
       2 -> 23         0.59011
       3 -> 24        -0.12488
       3 -> 27         0.24780
       4 -> 26         0.15329
       5 -> 25         0.15469

 Excited State  85:      Singlet-B2    51.2890 eV   24.17 nm  f=0.0778  <S**2>=0.000
       2 -> 24         0.22391
       4 -> 27        -0.15405
       5 -> 29         0.64233

 Excited State  86:      Singlet-A1    51.8817 eV   23.90 nm  f=0.0163  <S**2>=0.000
       3 -> 27         0.13786
       4 -> 28         0.69008

 Excited State  87:      Singlet-B2    52.1174 eV   23.79 nm  f=0.1137  <S**2>=0.000
       2 -> 24         0.66766
       5 -> 29        -0.20817

 Excited State  88:      Singlet-A2    52.6838 eV   23.53 nm  f=0.0000  <S**2>=0.000
       4 -> 29         0.70679

 Excited State  89:      Singlet-A1    54.7662 eV   22.64 nm  f=0.0159  <S**2>=0.000
       2 -> 23        -0.12969
       2 -> 26         0.21628
       3 -> 27         0.46345
       4 -> 26        -0.10315
       5 -> 25        -0.11259
       5 -> 30         0.41064

 Excited State  90:      Singlet-A1    55.4645 eV   22.35 nm  f=0.0417  <S**2>=0.000
       2 -> 26        -0.12637
       3 -> 27        -0.36616
       4 -> 32        -0.12127
       5 -> 30         0.56268

 Excited State  91:      Singlet-B2    56.2219 eV   22.05 nm  f=0.0119  <S**2>=0.000
       3 -> 28         0.69858

 Excited State  92:      Singlet-B1    56.5101 eV   21.94 nm  f=0.1222  <S**2>=0.000
       2 -> 25         0.68984
       3 -> 29        -0.13108

 Excited State  93:      Singlet-B1    56.9016 eV   21.79 nm  f=0.0019  <S**2>=0.000
       2 -> 25        -0.12805
       3 -> 29        -0.37457
       4 -> 30         0.58422

 Excited State  94:      Singlet-A1    57.3168 eV   21.63 nm  f=0.1103  <S**2>=0.000
       2 -> 26         0.65508
       3 -> 27        -0.18517

 Excited State  95:      Singlet-B1    57.4409 eV   21.58 nm  f=0.2120  <S**2>=0.000
       3 -> 29         0.51386
       4 -> 30         0.31872
       5 -> 32         0.35389

 Excited State  96:      Singlet-A2    58.0575 eV   21.36 nm  f=0.0000  <S**2>=0.000
       5 -> 31         0.70443

 Excited State  97:      Singlet-B1    58.5767 eV   21.17 nm  f=0.1875  <S**2>=0.000
       3 -> 29        -0.26923
       4 -> 30        -0.22105
       5 -> 32         0.61030

 Excited State  98:      Singlet-B2    60.0972 eV   20.63 nm  f=0.0167  <S**2>=0.000
       4 -> 31         0.70368

 Excited State  99:      Singlet-A1    60.9436 eV   20.34 nm  f=0.2313  <S**2>=0.000
       4 -> 32         0.68538

 Excited State 100:      Singlet-A2    60.9455 eV   20.34 nm  f=0.0000  <S**2>=0.000
       3 -> 30         0.70307

 Excited State 101:      Singlet-A1    64.3337 eV   19.27 nm  f=0.0001  <S**2>=0.000
       2 -> 28         0.10492
       3 -> 31         0.69180

 Excited State 102:      Singlet-B2    64.5930 eV   19.19 nm  f=0.0770  <S**2>=0.000
       3 -> 32         0.70123

 Excited State 103:      Singlet-B2    65.3497 eV   18.97 nm  f=0.0737  <S**2>=0.000
       2 -> 27         0.70339

 Excited State 104:      Singlet-A2    66.2838 eV   18.71 nm  f=0.0000  <S**2>=0.000
       5 -> 33         0.70478

 Excited State 105:      Singlet-B2    68.8914 eV   18.00 nm  f=0.0094  <S**2>=0.000
       4 -> 33         0.69952

 Excited State 106:      Singlet-A2    68.9993 eV   17.97 nm  f=0.0000  <S**2>=0.000
       2 -> 29         0.70488

 Excited State 107:      Singlet-A1    69.7903 eV   17.77 nm  f=0.0032  <S**2>=0.000
       2 -> 28         0.65186
       3 -> 33        -0.16834
       4 -> 34        -0.12032

 Excited State 108:      Singlet-B1    71.1420 eV   17.43 nm  f=0.1361  <S**2>=0.000
       5 -> 34         0.69487

 Excited State 109:      Singlet-A1    71.7112 eV   17.29 nm  f=0.0075  <S**2>=0.000
       3 -> 33        -0.21988
       4 -> 34         0.66860

 Excited State 110:      Singlet-B1    72.9922 eV   16.99 nm  f=0.0416  <S**2>=0.000
       2 -> 30         0.70270

 Excited State 111:      Singlet-A1    73.8718 eV   16.78 nm  f=0.0284  <S**2>=0.000
       2 -> 28         0.18091
       3 -> 33         0.63962
       4 -> 34         0.18914

 Excited State 112:      Singlet-B2    75.7325 eV   16.37 nm  f=0.0048  <S**2>=0.000
       2 -> 31         0.54534
       3 -> 34         0.44695

 Excited State 113:      Singlet-B2    76.1547 eV   16.28 nm  f=0.0058  <S**2>=0.000
       2 -> 31        -0.44963
       3 -> 34         0.53980

 Excited State 114:      Singlet-A1    76.6466 eV   16.18 nm  f=0.0046  <S**2>=0.000
       2 -> 32         0.70354

 Excited State 115:      Singlet-B2    84.8174 eV   14.62 nm  f=0.0225  <S**2>=0.000
       2 -> 33         0.70401

 Excited State 116:      Singlet-A1    87.9397 eV   14.10 nm  f=0.1398  <S**2>=0.000
       4 -> 37        -0.20963
       5 -> 35         0.66453

 Excited State 117:      Singlet-A1    88.6272 eV   13.99 nm  f=0.0336  <S**2>=0.000
       2 -> 34         0.69745

 Excited State 118:      Singlet-B1    89.4431 eV   13.86 nm  f=0.0795  <S**2>=0.000
       3 -> 36        -0.17891
       4 -> 35         0.65327
       5 -> 37         0.18968

 Excited State 119:      Singlet-A2    89.9042 eV   13.79 nm  f=0.0000  <S**2>=0.000
       4 -> 36         0.70581

 Excited State 120:      Singlet-B2    89.9172 eV   13.79 nm  f=0.2045  <S**2>=0.000
       3 -> 37         0.12339
       5 -> 36         0.68754

 Excited State 121:      Singlet-B1    91.8684 eV   13.50 nm  f=0.0178  <S**2>=0.000
       3 -> 36         0.19962
       4 -> 35        -0.13432
       5 -> 37         0.66400

 Excited State 122:      Singlet-A2    92.0059 eV   13.48 nm  f=0.0000  <S**2>=0.000
       3 -> 35         0.70629

 Excited State 123:      Singlet-B1    95.7156 eV   12.95 nm  f=0.1873  <S**2>=0.000
       3 -> 36         0.63457
       4 -> 35         0.19442
       5 -> 37        -0.14147
       5 -> 38         0.18592

 Excited State 124:      Singlet-A1    96.5674 eV   12.84 nm  f=0.2970  <S**2>=0.000
       4 -> 37         0.67018
       5 -> 35         0.20308

 Excited State 125:      Singlet-B2    98.3552 eV   12.61 nm  f=0.0727  <S**2>=0.000
       3 -> 37         0.69226
       5 -> 36        -0.11088

 Excited State 126:      Singlet-B1   104.9150 eV   11.82 nm  f=0.0463  <S**2>=0.000
       2 -> 35         0.60410
       5 -> 38        -0.35569

 Excited State 127:      Singlet-A1   105.5911 eV   11.74 nm  f=0.0095  <S**2>=0.000
       4 -> 38         0.70500

 Excited State 128:      Singlet-B1   105.7098 eV   11.73 nm  f=0.2752  <S**2>=0.000
       2 -> 35         0.36629
       3 -> 36        -0.13432
       5 -> 38         0.57767

 Excited State 129:      Singlet-A2   106.6100 eV   11.63 nm  f=0.0000  <S**2>=0.000
       2 -> 36         0.70609

 Excited State 130:      Singlet-B2   109.9518 eV   11.28 nm  f=0.0569  <S**2>=0.000
       3 -> 38         0.69541
       4 -> 39         0.10890

 Excited State 131:      Singlet-A1   110.3952 eV   11.23 nm  f=0.0068  <S**2>=0.000
       2 -> 37         0.70533

 Excited State 132:      Singlet-A2   114.1076 eV   10.87 nm  f=0.0000  <S**2>=0.000
       5 -> 39         0.70678

 Excited State 133:      Singlet-B2   117.5612 eV   10.55 nm  f=0.1661  <S**2>=0.000
       3 -> 38        -0.10115
       4 -> 39         0.69523

 Excited State 134:      Singlet-A1   121.2620 eV   10.22 nm  f=0.0896  <S**2>=0.000
       3 -> 39         0.69773

 Excited State 135:      Singlet-A1   121.7369 eV   10.18 nm  f=0.0182  <S**2>=0.000
       2 -> 38         0.70104

 Excited State 136:      Singlet-B2   132.5127 eV    9.36 nm  f=0.0022  <S**2>=0.000
       2 -> 39         0.70691

 The electronic state is 1-A1.
 Alpha  occ. eigenvalues --  -18.77278  -0.92141  -0.48969  -0.34085  -0.26789
 Alpha virt. eigenvalues --   -0.01666   0.05307   0.10416   0.10615   0.14737
 Alpha virt. eigenvalues --    0.17207   0.21630   0.22941   0.25916   0.33064
 Alpha virt. eigenvalues --    0.33786   0.37258   0.49657   0.50753   0.54695

 Mulliken charges:
               1
     1  O   -0.229078
     2  H    0.114539
     3  H    0.114539
 Sum of Mulliken charges =  -0.00000

 Dipole moment (field-independent basis, Debye):
    X=             -0.0000    Y=             -0.0000    Z=             -1.8186  Tot=              1.8186
 Quadrupole moment (field-independent basis, Debye-Ang):
   XX=             -7.8990   YY=             -4.5933   ZZ=             -6.6076
   XY=              0.0000   XZ=              0.0000   YZ=              0.0000

 Normal termination of Gaussian 16 at Mon Mar 21 20:20:00 2022.
