 Gaussian 16, Revision C.01,
 Gaussian 16:  EM64L-G16RevC.01  3-Jul-2019

 ----------------------------------------------------------------------
 #P TD(Nstates=10000) pbepbe/Gen SCF(maxcycles=100) Int(Grid=ultrafine)
 ----------------------------------------------------------------------

 ---------------------
 xGDB7_00001_tier4.com
 ---------------------
 Symbolic Z-matrix:
 Charge =  0 Multiplicity = 1

                         Standard orientation:
 ---------------------------------------------------------------------
 Center     Atomic      Atomic             Coordinates (Angstroms)
 Number     Number       Type             X           Y           Z
 ---------------------------------------------------------------------
      1          9           0        0.000000    0.000000    0.091801
      2          1           0        0.000000    0.000000   -0.826212
 ---------------------------------------------------------------------

 SCF Done:  E(RPBE-PBE) =  -100.279412465     A.U. after    9 cycles

 Excitation energies and oscillator strengths:

 Excited state symmetry could not be determined.
 Excited State   1:      Singlet-?Sym    9.4834 eV  130.74 nm  f=0.0327  <S**2>=0.000
       4 ->  6         0.55582
       5 ->  6         0.43650
 This state for optimization and/or second-order correction.
 Total Energy, E(TD-HF/TD-DFT) =  -99.9309036968
 Copying the excited state density for this state as the 1-particle RhoCI density.

 Excited state symmetry could not be determined.
 Excited State   2:      Singlet-?Sym    9.4834 eV  130.74 nm  f=0.0327  <S**2>=0.000
       4 ->  6        -0.43650
       5 ->  6         0.55582

 Excited state symmetry could not be determined.
 Excited State   3:      Singlet-?Sym   13.4274 eV   92.34 nm  f=0.0000  <S**2>=0.000
       4 ->  9        -0.50000
       5 ->  8         0.50000

 Excited state symmetry could not be determined.
 Excited State   4:      Singlet-?Sym   13.4300 eV   92.32 nm  f=0.0199  <S**2>=0.000
       4 ->  7         0.50971
       5 ->  7        -0.48911

 Excited state symmetry could not be determined.
 Excited State   5:      Singlet-?Sym   13.4300 eV   92.32 nm  f=0.0199  <S**2>=0.000
       4 ->  7         0.48911
       5 ->  7         0.50971

 Excited state symmetry could not be determined.
 Excited State   6:      Singlet-?Sym   13.4316 eV   92.31 nm  f=0.0000  <S**2>=0.000
       4 ->  8        -0.49993
       5 ->  9         0.49993

 Excited state symmetry could not be determined.
 Excited State   7:      Singlet-?Sym   13.4316 eV   92.31 nm  f=0.0000  <S**2>=0.000
       4 ->  9         0.49993
       5 ->  8         0.49993

 Excited State   8:      Singlet-SG    13.4509 eV   92.18 nm  f=0.1318  <S**2>=0.000
       3 ->  6         0.63689
       4 ->  8         0.21247
       5 ->  9         0.21247

 Excited state symmetry could not be determined.
 Excited State   9:      Singlet-?Sym   14.9798 eV   82.77 nm  f=0.0084  <S**2>=0.000
       3 ->  6        -0.26068
       3 ->  7        -0.17077
       3 -> 10         0.10592
       4 ->  8         0.41113
       4 -> 12        -0.15601
       5 ->  9         0.41113
       5 -> 11        -0.15601

 Excited state symmetry could not be determined.
 Excited State  10:      Singlet-?Sym   15.2987 eV   81.04 nm  f=0.0769  <S**2>=0.000
       4 -> 10        -0.25660
       5 -> 10         0.65793

 Excited state symmetry could not be determined.
 Excited State  11:      Singlet-?Sym   15.2987 eV   81.04 nm  f=0.0769  <S**2>=0.000
       4 -> 10         0.65793
       5 -> 10         0.25660

 Excited state symmetry could not be determined.
 Excited State  12:      Singlet-?Sym   15.9781 eV   77.60 nm  f=0.0000  <S**2>=0.000
       4 -> 12        -0.49994
       5 -> 11         0.49994

 Excited state symmetry could not be determined.
 Excited State  13:      Singlet-?Sym   15.9781 eV   77.60 nm  f=0.0000  <S**2>=0.000
       4 -> 11         0.49994
       5 -> 12         0.49994

 Excited state symmetry could not be determined.
 Excited State  14:      Singlet-?Sym   16.0955 eV   77.03 nm  f=0.0000  <S**2>=0.000
       4 -> 11        -0.50000
       5 -> 12         0.50000

 Excited state symmetry could not be determined.
 Excited State  15:      Singlet-?Sym   16.2242 eV   76.42 nm  f=0.2015  <S**2>=0.000
       3 ->  7        -0.11432
       3 -> 10         0.12259
       4 ->  8         0.10399
       4 -> 12         0.46809
       5 ->  9         0.10399
       5 -> 11         0.46809

 Excited state symmetry could not be determined.
 Excited State  16:      Singlet-?Sym   17.2735 eV   71.78 nm  f=0.0000  <S**2>=0.000
       3 ->  8         0.60803
       3 ->  9        -0.36033

 Excited state symmetry could not be determined.
 Excited State  17:      Singlet-?Sym   17.2735 eV   71.78 nm  f=0.0000  <S**2>=0.000
       3 ->  8         0.36033
       3 ->  9         0.60803

 Excited State  18:      Singlet-SG    17.6723 eV   70.16 nm  f=0.0457  <S**2>=0.000
       3 ->  7         0.66037
       3 -> 10         0.18932
       4 ->  8         0.10590
       5 ->  9         0.10590

 Excited state symmetry could not be determined.
 Excited State  19:      Singlet-?Sym   18.5292 eV   66.91 nm  f=0.0157  <S**2>=0.000
       4 -> 13         0.35407
       5 -> 13         0.61068

 Excited state symmetry could not be determined.
 Excited State  20:      Singlet-?Sym   18.5292 eV   66.91 nm  f=0.0157  <S**2>=0.000
       4 -> 13         0.61068
       5 -> 13        -0.35407

 Excited state symmetry could not be determined.
 Excited State  21:      Singlet-?Sym   19.8658 eV   62.41 nm  f=0.0735  <S**2>=0.000
       3 -> 11         0.68845
       3 -> 12         0.14964

 Excited state symmetry could not be determined.
 Excited State  22:      Singlet-?Sym   19.8658 eV   62.41 nm  f=0.0735  <S**2>=0.000
       3 -> 11        -0.14964
       3 -> 12         0.68845

 Excited State  23:      Singlet-SG    20.0638 eV   61.80 nm  f=0.0967  <S**2>=0.000
       3 ->  7        -0.12931
       3 -> 10         0.62240
       3 -> 13        -0.25321

 Excited State  24:      Singlet-SG    23.0556 eV   53.78 nm  f=0.0739  <S**2>=0.000
       3 -> 10         0.20381
       3 -> 13         0.64911

 Excited state symmetry could not be determined.
 Excited State  25:      Singlet-?Sym   24.0197 eV   51.62 nm  f=0.0000  <S**2>=0.000
       4 -> 14        -0.32901
       4 -> 15        -0.37651
       5 -> 14         0.37651
       5 -> 15        -0.32901

 Excited state symmetry could not be determined.
 Excited State  26:      Singlet-?Sym   24.0197 eV   51.62 nm  f=0.0000  <S**2>=0.000
       4 -> 14         0.37651
       4 -> 15        -0.32901
       5 -> 14         0.32901
       5 -> 15         0.37651

 Excited state symmetry could not be determined.
 Excited State  27:      Singlet-?Sym   25.1695 eV   49.26 nm  f=0.4167  <S**2>=0.000
       4 -> 14         0.42011
       4 -> 15         0.22111
       5 -> 14         0.22111
       5 -> 15        -0.42011
       5 -> 16        -0.18515

 Excited state symmetry could not be determined.
 Excited State  28:      Singlet-?Sym   25.1695 eV   49.26 nm  f=0.4167  <S**2>=0.000
       4 -> 14        -0.22111
       4 -> 15         0.42011
       4 -> 16        -0.18515
       5 -> 14         0.42011
       5 -> 15         0.22111

 Excited state symmetry could not be determined.
 Excited State  29:      Singlet-?Sym   26.6147 eV   46.58 nm  f=0.1856  <S**2>=0.000
       4 -> 14         0.11070
       4 -> 16        -0.42328
       5 -> 15        -0.11070
       5 -> 16         0.52346

 Excited state symmetry could not be determined.
 Excited State  30:      Singlet-?Sym   26.6147 eV   46.58 nm  f=0.1856  <S**2>=0.000
       4 -> 15         0.11070
       4 -> 16         0.52346
       5 -> 14         0.11070
       5 -> 16         0.42328

 Excited state symmetry could not be determined.
 Excited State  31:      Singlet-?Sym   28.0438 eV   44.21 nm  f=0.0000  <S**2>=0.000
       3 -> 14         0.69245
       4 -> 17         0.10123
       5 -> 18         0.10123

 Excited state symmetry could not be determined.
 Excited State  32:      Singlet-?Sym   28.0438 eV   44.21 nm  f=0.0000  <S**2>=0.000
       3 -> 15         0.69245
       4 -> 18         0.10123
       5 -> 17        -0.10123

 Excited state symmetry could not be determined.
 Excited State  33:      Singlet-?Sym   28.6004 eV   43.35 nm  f=0.0000  <S**2>=0.000
       3 -> 14        -0.14316
       4 -> 17         0.48964
       5 -> 18         0.48964

 Excited state symmetry could not be determined.
 Excited State  34:      Singlet-?Sym   28.6004 eV   43.35 nm  f=0.0000  <S**2>=0.000
       3 -> 15         0.14316
       4 -> 18        -0.48964
       5 -> 17         0.48964

 Excited state symmetry could not be determined.
 Excited State  35:      Singlet-?Sym   28.7698 eV   43.10 nm  f=0.0000  <S**2>=0.000
       4 -> 17        -0.50000
       5 -> 18         0.50000

 Excited state symmetry could not be determined.
 Excited State  36:      Singlet-?Sym   29.1564 eV   42.52 nm  f=0.1570  <S**2>=0.000
       2 ->  6         0.14519
       3 -> 16         0.33393
       4 -> 18         0.42695
       5 -> 17         0.42695

 Excited State  37:      Singlet-SG    30.1016 eV   41.19 nm  f=0.0591  <S**2>=0.000
       2 ->  6         0.66378
       3 -> 16        -0.19186

 Excited State  38:      Singlet-SG    31.8459 eV   38.93 nm  f=0.5540  <S**2>=0.000
       2 ->  6         0.14218
       3 -> 16         0.58307
       4 -> 18        -0.24586
       5 -> 17        -0.24586

 Excited state symmetry could not be determined.
 Excited State  39:      Singlet-?Sym   32.9379 eV   37.64 nm  f=0.2846  <S**2>=0.000
       2 ->  9        -0.24528
       3 -> 17         0.65590

 Excited state symmetry could not be determined.
 Excited State  40:      Singlet-?Sym   32.9379 eV   37.64 nm  f=0.2846  <S**2>=0.000
       2 ->  8        -0.24528
       3 -> 18         0.65590

 Excited State  41:      Singlet-SG    33.5439 eV   36.96 nm  f=0.0109  <S**2>=0.000
       2 ->  7         0.69658

 Excited state symmetry could not be determined.
 Excited State  42:      Singlet-?Sym   33.7952 eV   36.69 nm  f=0.0161  <S**2>=0.000
       2 ->  8        -0.35431
       2 ->  9         0.55825
       3 -> 17         0.20293
       3 -> 18        -0.12880

 Excited state symmetry could not be determined.
 Excited State  43:      Singlet-?Sym   33.7952 eV   36.69 nm  f=0.0161  <S**2>=0.000
       2 ->  8         0.55825
       2 ->  9         0.35431
       3 -> 17         0.12880
       3 -> 18         0.20293

 Excited State  44:      Singlet-SG    35.4851 eV   34.94 nm  f=0.0101  <S**2>=0.000
       2 -> 10         0.69993

 Excited state symmetry could not be determined.
 Excited State  45:      Singlet-?Sym   36.0526 eV   34.39 nm  f=0.0033  <S**2>=0.000
       2 -> 11         0.68516
       2 -> 12        -0.17370

 Excited state symmetry could not be determined.
 Excited State  46:      Singlet-?Sym   36.0526 eV   34.39 nm  f=0.0033  <S**2>=0.000
       2 -> 11         0.17370
       2 -> 12         0.68516

 Excited state symmetry could not be determined.
 Excited State  47:      Singlet-?Sym   36.6656 eV   33.81 nm  f=0.0057  <S**2>=0.000
       4 -> 19         0.26828
       5 -> 19         0.65366

 Excited state symmetry could not be determined.
 Excited State  48:      Singlet-?Sym   36.6656 eV   33.81 nm  f=0.0057  <S**2>=0.000
       4 -> 19         0.65366
       5 -> 19        -0.26828

 Excited State  49:      Singlet-SG    39.0207 eV   31.77 nm  f=0.0238  <S**2>=0.000
       2 -> 13         0.67625
       3 -> 19         0.15540

 Excited State  50:      Singlet-SG    41.0943 eV   30.17 nm  f=0.0017  <S**2>=0.000
       2 -> 13        -0.12112
       3 -> 19         0.66317
       4 -> 21        -0.13845
       5 -> 20        -0.13845

 Excited state symmetry could not be determined.
 Excited State  51:      Singlet-?Sym   44.2626 eV   28.01 nm  f=0.0000  <S**2>=0.000
       2 -> 15         0.44694
       4 -> 21        -0.38746
       5 -> 20         0.38746

 Excited state symmetry could not be determined.
 Excited State  52:      Singlet-?Sym   44.2626 eV   28.01 nm  f=0.0000  <S**2>=0.000
       2 -> 14         0.44694
       4 -> 20        -0.38745
       5 -> 21        -0.38745

 Excited state symmetry could not be determined.
 Excited State  53:      Singlet-?Sym   44.3175 eV   27.98 nm  f=0.0000  <S**2>=0.000
       4 -> 20         0.50000
       5 -> 21        -0.50000

 Excited state symmetry could not be determined.
 Excited State  54:      Singlet-?Sym   44.4839 eV   27.87 nm  f=0.0000  <S**2>=0.000
       2 -> 15         0.54791
       4 -> 21         0.31601
       5 -> 20        -0.31601

 Excited state symmetry could not be determined.
 Excited State  55:      Singlet-?Sym   44.4839 eV   27.87 nm  f=0.0000  <S**2>=0.000
       2 -> 14         0.54791
       4 -> 20         0.31601
       5 -> 21         0.31601

 Excited State  56:      Singlet-SG    46.6864 eV   26.56 nm  f=0.0004  <S**2>=0.000
       2 -> 16         0.69870

 Excited state symmetry could not be determined.
 Excited State  57:      Singlet-?Sym   48.2189 eV   25.71 nm  f=0.0000  <S**2>=0.000
       3 -> 20         0.66155
       3 -> 21        -0.23532

 Excited state symmetry could not be determined.
 Excited State  58:      Singlet-?Sym   48.2189 eV   25.71 nm  f=0.0000  <S**2>=0.000
       3 -> 20         0.23532
       3 -> 21         0.66155

 Excited state symmetry could not be determined.
 Excited State  59:      Singlet-?Sym   48.9519 eV   25.33 nm  f=0.0035  <S**2>=0.000
       2 -> 17         0.70148

 Excited state symmetry could not be determined.
 Excited State  60:      Singlet-?Sym   48.9519 eV   25.33 nm  f=0.0035  <S**2>=0.000
       2 -> 18         0.70148

 Excited state symmetry could not be determined.
 Excited State  61:      Singlet-?Sym   49.7765 eV   24.91 nm  f=0.0435  <S**2>=0.000
       4 -> 22        -0.20161
       5 -> 22         0.67174

 Excited state symmetry could not be determined.
 Excited State  62:      Singlet-?Sym   49.7765 eV   24.91 nm  f=0.0435  <S**2>=0.000
       4 -> 22         0.67174
       5 -> 22         0.20161

 Excited State  63:      Singlet-SG    50.5426 eV   24.53 nm  f=0.0758  <S**2>=0.000
       2 -> 19         0.10783
       3 -> 19        -0.11478
       3 -> 22         0.44637
       4 -> 21        -0.35171
       5 -> 20        -0.35171

 Excited State  64:      Singlet-SG    56.8024 eV   21.83 nm  f=0.0309  <S**2>=0.000
       2 -> 19         0.55876
       3 -> 22        -0.34775
       4 -> 21        -0.11322
       4 -> 23        -0.12430
       5 -> 20        -0.11322
       5 -> 24        -0.12430

 Excited state symmetry could not be determined.
 Excited State  65:      Singlet-?Sym   57.9024 eV   21.41 nm  f=0.0000  <S**2>=0.000
       4 -> 23         0.50000
       5 -> 24        -0.50000

 Excited state symmetry could not be determined.
 Excited State  66:      Singlet-?Sym   57.9024 eV   21.41 nm  f=0.0000  <S**2>=0.000
       4 -> 24         0.50000
       5 -> 23         0.50000

 Excited State  67:      Singlet-SG    58.1504 eV   21.32 nm  f=0.1003  <S**2>=0.000
       2 -> 19         0.38632
       2 -> 22         0.10639
       3 -> 22         0.24012
       4 -> 21         0.15715
       4 -> 23         0.32603
       5 -> 20         0.15715
       5 -> 24         0.32603

 Excited state symmetry could not be determined.
 Excited State  68:      Singlet-?Sym   58.1680 eV   21.31 nm  f=0.0000  <S**2>=0.000
       4 -> 24        -0.50000
       5 -> 23         0.50000

 Excited state symmetry could not be determined.
 Excited State  69:      Singlet-?Sym   59.4923 eV   20.84 nm  f=0.0318  <S**2>=0.000
       2 -> 19        -0.14687
       2 -> 22        -0.15970
       3 -> 22        -0.31291
       3 -> 25         0.18755
       4 -> 21        -0.18107
       4 -> 23         0.34675
       5 -> 20        -0.18107
       5 -> 24         0.34675

 Excited state symmetry could not be determined.
 Excited State  70:      Singlet-?Sym   61.0778 eV   20.30 nm  f=0.0013  <S**2>=0.000
       3 -> 23         0.20185
       3 -> 24        -0.25635
       4 -> 25        -0.38643
       5 -> 25         0.49077

 Excited state symmetry could not be determined.
 Excited State  71:      Singlet-?Sym   61.0778 eV   20.30 nm  f=0.0013  <S**2>=0.000
       3 -> 23        -0.25635
       3 -> 24        -0.20185
       4 -> 25         0.49077
       5 -> 25         0.38643

 Excited state symmetry could not be determined.
 Excited State  72:      Singlet-?Sym   62.1823 eV   19.94 nm  f=0.1441  <S**2>=0.000
       3 -> 23        -0.43601
       3 -> 24         0.44830
       4 -> 25        -0.22418
       5 -> 25         0.23050

 Excited state symmetry could not be determined.
 Excited State  73:      Singlet-?Sym   62.1823 eV   19.94 nm  f=0.1441  <S**2>=0.000
       3 -> 23         0.44830
       3 -> 24         0.43601
       4 -> 25         0.23050
       5 -> 25         0.22418

 Excited state symmetry could not be determined.
 Excited State  74:      Singlet-?Sym   65.1154 eV   19.04 nm  f=0.2307  <S**2>=0.000
       2 -> 20         0.57181
       2 -> 21         0.40463

 Excited state symmetry could not be determined.
 Excited State  75:      Singlet-?Sym   65.1154 eV   19.04 nm  f=0.2307  <S**2>=0.000
       2 -> 20        -0.40463
       2 -> 21         0.57181

 Excited State  76:      Singlet-SG    65.7026 eV   18.87 nm  f=0.0185  <S**2>=0.000
       2 -> 22         0.17889
       3 -> 25         0.66524

 Excited State  77:      Singlet-SG    72.0463 eV   17.21 nm  f=0.0835  <S**2>=0.000
       2 -> 22         0.62795
       2 -> 25         0.15597
       3 -> 22        -0.11531
       3 -> 25        -0.12284
       3 -> 26        -0.14643
       4 -> 21        -0.10948
       5 -> 20        -0.10948

 Excited state symmetry could not be determined.
 Excited State  78:      Singlet-?Sym   72.1142 eV   17.19 nm  f=0.0182  <S**2>=0.000
       4 -> 26         0.16487
       5 -> 26         0.68536

 Excited state symmetry could not be determined.
 Excited State  79:      Singlet-?Sym   72.1142 eV   17.19 nm  f=0.0182  <S**2>=0.000
       4 -> 26         0.68536
       5 -> 26        -0.16487

 Excited State  80:      Singlet-SG    76.9436 eV   16.11 nm  f=0.0174  <S**2>=0.000
       2 -> 22         0.10925
       2 -> 25         0.11269
       3 -> 26         0.67947

 Excited state symmetry could not be determined.
 Excited State  81:      Singlet-?Sym   78.2318 eV   15.85 nm  f=0.0020  <S**2>=0.000
       2 -> 23         0.69828
       2 -> 24         0.10936

 Excited state symmetry could not be determined.
 Excited State  82:      Singlet-?Sym   78.2318 eV   15.85 nm  f=0.0020  <S**2>=0.000
       2 -> 23        -0.10936
       2 -> 24         0.69828

 Excited State  83:      Singlet-SG    83.8967 eV   14.78 nm  f=0.0354  <S**2>=0.000
       2 -> 22        -0.12213
       2 -> 25         0.67193

 Excited State  84:      Singlet-SG    93.0214 eV   13.33 nm  f=0.0230  <S**2>=0.000
       2 -> 26         0.70315

 Excited state symmetry could not be determined.
 Excited State  85:      Singlet-?Sym   96.7415 eV   12.82 nm  f=0.0000  <S**2>=0.000
       4 -> 28         0.49999
       5 -> 27         0.49999

 Excited state symmetry could not be determined.
 Excited State  86:      Singlet-?Sym   96.7415 eV   12.82 nm  f=0.0000  <S**2>=0.000
       4 -> 27         0.49999
       5 -> 28        -0.49999

 Excited state symmetry could not be determined.
 Excited State  87:      Singlet-?Sym  100.6994 eV   12.31 nm  f=0.0000  <S**2>=0.000
       3 -> 27         0.70607

 Excited state symmetry could not be determined.
 Excited State  88:      Singlet-?Sym  100.6994 eV   12.31 nm  f=0.0000  <S**2>=0.000
       3 -> 28         0.70607

 Excited state symmetry could not be determined.
 Excited State  89:      Singlet-?Sym  101.1146 eV   12.26 nm  f=0.2581  <S**2>=0.000
       3 -> 29        -0.36408
       4 -> 27         0.42209
       5 -> 28         0.42209

 Excited state symmetry could not be determined.
 Excited State  90:      Singlet-?Sym  101.1146 eV   12.26 nm  f=0.2581  <S**2>=0.000
       3 -> 30         0.36408
       4 -> 28        -0.42209
       5 -> 27         0.42209

 Excited state symmetry could not be determined.
 Excited State  91:      Singlet-?Sym  101.4382 eV   12.22 nm  f=0.0000  <S**2>=0.000
       4 -> 30         0.49953
       5 -> 29         0.49953

 Excited state symmetry could not be determined.
 Excited State  92:      Singlet-?Sym  101.4382 eV   12.22 nm  f=0.0000  <S**2>=0.000
       4 -> 29         0.49953
       5 -> 30        -0.49953

 Excited state symmetry could not be determined.
 Excited State  93:      Singlet-?Sym  101.5064 eV   12.21 nm  f=0.0000  <S**2>=0.000
       4 -> 30        -0.50000
       5 -> 29         0.50000

 Excited state symmetry could not be determined.
 Excited State  94:      Singlet-?Sym  107.4080 eV   11.54 nm  f=0.5528  <S**2>=0.000
       3 -> 31        -0.10075
       4 -> 29         0.49159
       5 -> 30         0.49159

 Excited state symmetry could not be determined.
 Excited State  95:      Singlet-?Sym  109.8702 eV   11.28 nm  f=0.6494  <S**2>=0.000
       3 -> 29         0.58927
       3 -> 30         0.11493
       4 -> 27         0.24897
       5 -> 28         0.24897

 Excited state symmetry could not be determined.
 Excited State  96:      Singlet-?Sym  109.8702 eV   11.28 nm  f=0.6494  <S**2>=0.000
       3 -> 29        -0.11493
       3 -> 30         0.58927
       4 -> 28         0.24897
       5 -> 27        -0.24897

 Excited state symmetry could not be determined.
 Excited State  97:      Singlet-?Sym  118.4646 eV   10.47 nm  f=0.0000  <S**2>=0.000
       2 -> 28         0.70672

 Excited state symmetry could not be determined.
 Excited State  98:      Singlet-?Sym  118.4646 eV   10.47 nm  f=0.0000  <S**2>=0.000
       2 -> 27         0.70672

 Excited state symmetry could not be determined.
 Excited State  99:      Singlet-?Sym  123.1028 eV   10.07 nm  f=0.0116  <S**2>=0.000
       2 -> 29         0.69362
       2 -> 30        -0.13178

 Excited state symmetry could not be determined.
 Excited State 100:      Singlet-?Sym  123.1028 eV   10.07 nm  f=0.0116  <S**2>=0.000
       2 -> 29         0.13178
       2 -> 30         0.69362

 Excited state symmetry could not be determined.
 Excited State 101:      Singlet-?Sym  127.2797 eV    9.74 nm  f=0.1133  <S**2>=0.000
       4 -> 31        -0.21846
       5 -> 31         0.66508

 Excited state symmetry could not be determined.
 Excited State 102:      Singlet-?Sym  127.2797 eV    9.74 nm  f=0.1133  <S**2>=0.000
       4 -> 31         0.66508
       5 -> 31         0.21846

 Excited State 103:      Singlet-SG   132.4929 eV    9.36 nm  f=0.2323  <S**2>=0.000
       3 -> 31         0.69925

 Excited State 104:      Singlet-SG   147.1866 eV    8.42 nm  f=0.0001  <S**2>=0.000
       2 -> 31         0.70677

 The electronic state is 1-SG.
 Alpha  occ. eigenvalues --  -24.27205  -1.08938  -0.49674  -0.35703  -0.35703
 Alpha virt. eigenvalues --   -0.01481   0.13525   0.13642   0.13642   0.20346
 Alpha virt. eigenvalues --    0.23447   0.23447   0.31854   0.53730   0.53730
 Alpha virt. eigenvalues --    0.61224   0.70024   0.70024   0.99160   1.27161

 Mulliken charges:
               1
     1  F   -0.232131
     2  H    0.232131
 Sum of Mulliken charges =   0.00000

 Dipole moment (field-independent basis, Debye):
    X=              0.0000    Y=              0.0000    Z=             -1.7707  Tot=              1.7707
 Quadrupole moment (field-independent basis, Debye-Ang):
   XX=             -5.9910   YY=             -5.9910   ZZ=             -3.9043
   XY=              0.0000   XZ=              0.0000   YZ=              0.0000

 Normal termination of Gaussian 16 at Mon Mar 21 20:09:15 2022.
