 Gaussian 16, Revision C.01,
 Gaussian 16:  EM64L-G16RevC.01  3-Jul-2019

 ----------------------------------------------------------------------
 #P TD(Nstates=10000) wB97XD/def2TZVP SCF(maxcycles=100) Int(Grid=ultra
 fine)
 ----------------------------------------------------------------------

 ---------------------
 xGDB7_00001_tier4.com
 ---------------------
 Symbolic Z-matrix:
 Charge =  0 Multiplicity = 1

                         Standard orientation:
 ---------------------------------------------------------------------
 Center     Atomic      Atomic             Coordinates (Angstroms)
 Number     Number       Type             X           Y           Z
 ---------------------------------------------------------------------
      1          9           0       -1.139724   -0.269725    0.000000
      2          6           0        0.000000    0.430281    0.000000
      3          6           0        1.180852   -0.148760    0.000000
      4          1           0       -0.180450    1.498331    0.000000
      5          1           0        1.283634   -1.225170    0.000000
      6          1           0        2.069222    0.465238    0.000000
 ---------------------------------------------------------------------

 SCF Done:  E(RwB97XD) =  -177.845093807     A.U. after   14 cycles

 Excitation energies and oscillator strengths:

 Excited State   1:      Singlet-A'     7.7976 eV  159.00 nm  f=0.3472  <S**2>=0.000
      12 -> 13         0.69912
 This state for optimization and/or second-order correction.
 Total Energy, E(TD-HF/TD-DFT) =  -177.558538240
 Copying the excited state density for this state as the 1-particle RhoCI density.

 Excited State   2:      Singlet-A"     8.4567 eV  146.61 nm  f=0.0142  <S**2>=0.000
      12 -> 14         0.65048
      12 -> 15         0.15068
      12 -> 16         0.20583

 Excited State   3:      Singlet-A"     8.9236 eV  138.94 nm  f=0.0033  <S**2>=0.000
      11 -> 13         0.14729
      12 -> 14        -0.23571
      12 -> 15         0.58036
      12 -> 16         0.27167

 Excited State   4:      Singlet-A"     8.9863 eV  137.97 nm  f=0.0000  <S**2>=0.000
      11 -> 13         0.67747
      12 -> 16        -0.15579

 Excited State   5:      Singlet-A"     9.4332 eV  131.43 nm  f=0.0154  <S**2>=0.000
      12 -> 14        -0.11632
      12 -> 15        -0.34855
      12 -> 16         0.57086
      12 -> 17        -0.15195

 Excited State   6:      Singlet-A"     9.9500 eV  124.61 nm  f=0.0003  <S**2>=0.000
      10 -> 13         0.69731

 Excited State   7:      Singlet-A"    10.3661 eV  119.61 nm  f=0.0117  <S**2>=0.000
      12 -> 16         0.14994
      12 -> 17         0.67807

 Excited State   8:      Singlet-A'    11.5237 eV  107.59 nm  f=0.0451  <S**2>=0.000
      11 -> 14         0.55405
      11 -> 15         0.24552
      11 -> 16         0.26514
      11 -> 17        -0.19977

 Excited State   9:      Singlet-A"    11.6732 eV  106.21 nm  f=0.0408  <S**2>=0.000
       8 -> 13         0.17991
      12 -> 18         0.64858
      12 -> 19        -0.18865

 Excited State  10:      Singlet-A"    11.9410 eV  103.83 nm  f=0.0301  <S**2>=0.000
       8 -> 13         0.50970
      12 -> 18        -0.25964
      12 -> 19        -0.40603

 Excited State  11:      Singlet-A'    11.9834 eV  103.46 nm  f=0.0045  <S**2>=0.000
       9 -> 13         0.15751
      11 -> 14        -0.26273
      11 -> 15         0.17102
      11 -> 16         0.43732
      12 -> 20        -0.39959

 Excited State  12:      Singlet-A'    12.1768 eV  101.82 nm  f=0.0756  <S**2>=0.000
       9 -> 13         0.41329
      10 -> 14         0.30493
      10 -> 16         0.11998
      11 -> 14         0.21484
      11 -> 15        -0.10225
      11 -> 16        -0.21981
      12 -> 20        -0.30472

 Excited State  13:      Singlet-A"    12.2677 eV  101.07 nm  f=0.2178  <S**2>=0.000
       8 -> 13         0.43886
      12 -> 19         0.53290

 Excited State  14:      Singlet-A'    12.3500 eV  100.39 nm  f=0.0098  <S**2>=0.000
       9 -> 13         0.52356
      10 -> 14        -0.15578
      11 -> 14        -0.13769
      12 -> 20         0.37616

 Excited State  15:      Singlet-A'    12.5026 eV   99.17 nm  f=0.3888  <S**2>=0.000
      10 -> 14        -0.18453
      10 -> 15         0.24504
      11 -> 15         0.50562
      11 -> 16        -0.33992
      12 -> 20        -0.11481

 Excited State  16:      Singlet-A'    12.8045 eV   96.83 nm  f=0.1355  <S**2>=0.000
      10 -> 14        -0.35319
      10 -> 15         0.41908
      11 -> 14         0.16872
      11 -> 15        -0.34471
      12 -> 20        -0.14348

 Excited State  17:      Singlet-A'    13.0916 eV   94.71 nm  f=0.2483  <S**2>=0.000
      10 -> 14         0.42652
      10 -> 15         0.48071
      11 -> 16         0.13771
      12 -> 20         0.17386

 Excited State  18:      Singlet-A"    13.4009 eV   92.52 nm  f=0.0101  <S**2>=0.000
       7 -> 13         0.70024

 Excited State  19:      Singlet-A'    13.5663 eV   91.39 nm  f=0.0290  <S**2>=0.000
       8 -> 14        -0.12521
      10 -> 14        -0.13938
      10 -> 16         0.15811
      11 -> 14         0.12251
      11 -> 16         0.18239
      11 -> 17         0.60139

 Excited State  20:      Singlet-A'    13.7092 eV   90.44 nm  f=0.2439  <S**2>=0.000
      10 -> 16         0.64890
      11 -> 17        -0.17640

 Excited State  21:      Singlet-A"    14.0318 eV   88.36 nm  f=0.0850  <S**2>=0.000
       9 -> 14         0.43584
       9 -> 15         0.27119
       9 -> 16         0.38673
       9 -> 17        -0.25484

 Excited State  22:      Singlet-A"    14.3122 eV   86.63 nm  f=0.0001  <S**2>=0.000
       9 -> 14        -0.14212
       9 -> 16         0.18500
      12 -> 21         0.63910
      12 -> 24        -0.13114

 Excited State  23:      Singlet-A'    14.3705 eV   86.28 nm  f=0.0154  <S**2>=0.000
       8 -> 14         0.13821
       8 -> 16         0.10523
      10 -> 17         0.52527
      10 -> 18         0.13472
      11 -> 18         0.14410
      12 -> 22        -0.34574

 Excited State  24:      Singlet-A"    14.6180 eV   84.82 nm  f=0.0181  <S**2>=0.000
       9 -> 14         0.40929
       9 -> 16        -0.30751
      12 -> 21         0.23335
      12 -> 23        -0.40529

 Excited State  25:      Singlet-A'    14.8459 eV   83.51 nm  f=0.0074  <S**2>=0.000
       8 -> 14         0.20631
       8 -> 15         0.35114
       8 -> 16         0.11342
      10 -> 18         0.13914
      11 -> 18         0.25200
      11 -> 19        -0.19302
      12 -> 22         0.41072

 Excited State  26:      Singlet-A"    14.8694 eV   83.38 nm  f=0.0157  <S**2>=0.000
       9 -> 14         0.25589
       9 -> 15        -0.11618
       9 -> 16        -0.30708
      12 -> 23         0.55468

 Excited State  27:      Singlet-A'    14.9068 eV   83.17 nm  f=0.0247  <S**2>=0.000
       8 -> 14         0.54128
       8 -> 16         0.16918
      10 -> 17        -0.28332
      11 -> 18        -0.10615
      12 -> 22        -0.19983

 Excited State  28:      Singlet-A"    15.2201 eV   81.46 nm  f=0.0206  <S**2>=0.000
       9 -> 15         0.59432
       9 -> 16        -0.19265
       9 -> 17         0.22486
      12 -> 24        -0.17004

 Excited State  29:      Singlet-A'    15.2414 eV   81.35 nm  f=0.0208  <S**2>=0.000
       8 -> 15        -0.20583
       8 -> 16        -0.22355
      10 -> 17        -0.16194
      11 -> 18         0.40098
      11 -> 19        -0.38543
      12 -> 22        -0.17856

 Excited State  30:      Singlet-A"    15.2864 eV   81.11 nm  f=0.0234  <S**2>=0.000
      11 -> 20         0.68881

 Excited State  31:      Singlet-A'    15.3729 eV   80.65 nm  f=0.2120  <S**2>=0.000
       8 -> 15         0.34087
       8 -> 16        -0.30612
       8 -> 17         0.10538
      10 -> 18        -0.11828
      11 -> 18         0.22976
      11 -> 19         0.39594
      12 -> 22        -0.13601

 Excited State  32:      Singlet-A'    15.5372 eV   79.80 nm  f=0.1518  <S**2>=0.000
       8 -> 15        -0.26153
      10 -> 18         0.50304
      10 -> 19        -0.13042
      11 -> 18         0.19053
      11 -> 19         0.26049

 Excited State  33:      Singlet-A"    15.5821 eV   79.57 nm  f=0.0069  <S**2>=0.000
       6 -> 13         0.13744
       9 -> 15         0.17041
      12 -> 21         0.12703
      12 -> 24         0.63994

 Excited State  34:      Singlet-A'    15.5853 eV   79.55 nm  f=0.0064  <S**2>=0.000
       7 -> 16        -0.10427
       8 -> 14        -0.31487
       8 -> 15         0.10870
       8 -> 16         0.41698
      10 -> 17        -0.22123
      10 -> 18         0.11115
      10 -> 19         0.14313
      11 -> 18         0.19059
      12 -> 22        -0.20723

 Excited State  35:      Singlet-A'    15.8740 eV   78.11 nm  f=0.0298  <S**2>=0.000
       8 -> 15         0.30501
       8 -> 16        -0.20311
      10 -> 17        -0.11746
      10 -> 18         0.33700
      11 -> 18        -0.25854
      11 -> 19        -0.25322
      12 -> 22        -0.19884

 Excited State  36:      Singlet-A"    16.1456 eV   76.79 nm  f=0.0099  <S**2>=0.000
      10 -> 20         0.67793
      10 -> 22         0.10715

 Excited State  37:      Singlet-A'    16.2034 eV   76.52 nm  f=0.0896  <S**2>=0.000
       7 -> 14         0.25901
       8 -> 16         0.17334
       8 -> 17         0.43807
      10 -> 18        -0.12141
      10 -> 19        -0.35431
      11 -> 21        -0.16848

 Excited State  38:      Singlet-A"    16.2984 eV   76.07 nm  f=0.0677  <S**2>=0.000
       6 -> 13         0.48728
       9 -> 14        -0.10176
       9 -> 16        -0.21940
       9 -> 17        -0.36277
      12 -> 24        -0.13870

 Excited State  39:      Singlet-A"    16.3299 eV   75.92 nm  f=0.2020  <S**2>=0.000
       6 -> 13         0.42116
       9 -> 14         0.16952
       9 -> 16         0.11584
       9 -> 17         0.47699

 Excited State  40:      Singlet-A'    16.3444 eV   75.86 nm  f=0.1648  <S**2>=0.000
       7 -> 14         0.28936
       7 -> 16        -0.10776
       8 -> 17         0.25015
      10 -> 19         0.53472

 Excited State  41:      Singlet-A'    16.4468 eV   75.39 nm  f=0.0897  <S**2>=0.000
       7 -> 14         0.40960
       7 -> 15        -0.14505
       7 -> 16        -0.38739
       8 -> 17        -0.31202
      10 -> 19        -0.12241
      11 -> 21         0.10680

 Excited State  42:      Singlet-A'    16.6987 eV   74.25 nm  f=0.0498  <S**2>=0.000
       7 -> 14         0.30062
       7 -> 15         0.19450
       7 -> 16         0.41955
       7 -> 17        -0.23505
       8 -> 17        -0.22750
      10 -> 18        -0.10087
      11 -> 18         0.12316

 Excited State  43:      Singlet-A'    17.0076 eV   72.90 nm  f=0.0001  <S**2>=0.000
       7 -> 15         0.59621
       7 -> 16        -0.24767
      11 -> 21        -0.17088

 Excited State  44:      Singlet-A'    17.2208 eV   72.00 nm  f=0.0749  <S**2>=0.000
       7 -> 15         0.19515
       8 -> 16         0.12734
       8 -> 17         0.12358
      11 -> 21         0.60157
      11 -> 24        -0.10380

 Excited State  45:      Singlet-A"    17.5274 eV   70.74 nm  f=0.0100  <S**2>=0.000
       6 -> 13         0.10015
      12 -> 25         0.68935

 Excited State  46:      Singlet-A"    17.7212 eV   69.96 nm  f=0.0005  <S**2>=0.000
       8 -> 20        -0.30777
       9 -> 18        -0.12980
       9 -> 19         0.14872
      11 -> 22         0.58465

 Excited State  47:      Singlet-A"    17.8084 eV   69.62 nm  f=0.0598  <S**2>=0.000
       9 -> 18        -0.45749
       9 -> 19         0.46466
      11 -> 22        -0.18017
      12 -> 26         0.10394

 Excited State  48:      Singlet-A'    17.8237 eV   69.56 nm  f=0.0664  <S**2>=0.000
       7 -> 17        -0.11726
       8 -> 18        -0.43825
       9 -> 20         0.47163
      11 -> 23         0.13934

 Excited State  49:      Singlet-A'    17.9399 eV   69.11 nm  f=0.0241  <S**2>=0.000
       6 -> 14        -0.16752
       6 -> 16        -0.11685
       7 -> 16         0.16488
       7 -> 17         0.36484
       8 -> 19         0.32746
       9 -> 20         0.13487
      10 -> 21        -0.15406
      11 -> 23        -0.32415

 Excited State  50:      Singlet-A'    18.1774 eV   68.21 nm  f=0.0264  <S**2>=0.000
       7 -> 16         0.11477
       7 -> 17         0.39251
       8 -> 18         0.20792
       8 -> 19        -0.37775
       9 -> 20         0.20673
      11 -> 23         0.18218
      11 -> 24        -0.15962

 Excited State  51:      Singlet-A'    18.2015 eV   68.12 nm  f=0.0463  <S**2>=0.000
       7 -> 14        -0.13010
       7 -> 17        -0.16768
       8 -> 18         0.41234
       8 -> 19         0.16157
       9 -> 20         0.40639
      11 -> 23        -0.15026
      11 -> 24         0.10499

 Excited State  52:      Singlet-A"    18.2067 eV   68.10 nm  f=0.0132  <S**2>=0.000
       9 -> 18         0.14460
      12 -> 26         0.66790

 Excited State  53:      Singlet-A'    18.3450 eV   67.58 nm  f=0.0009  <S**2>=0.000
       6 -> 14         0.43324
       6 -> 15         0.22046
       6 -> 16         0.19524
       8 -> 17         0.16896
       8 -> 19         0.23947
      10 -> 23        -0.10339
      11 -> 24        -0.29002

 Excited State  54:      Singlet-A"    18.4020 eV   67.38 nm  f=0.0225  <S**2>=0.000
       9 -> 18         0.47140
       9 -> 19         0.48230
      12 -> 26        -0.10576

 Excited State  55:      Singlet-A"    18.4297 eV   67.27 nm  f=0.0369  <S**2>=0.000
       7 -> 20        -0.14226
       8 -> 20         0.47643
      10 -> 22         0.42004
      11 -> 22         0.19546
      12 -> 26        -0.11331

 Excited State  56:      Singlet-A'    18.4516 eV   67.19 nm  f=0.1020  <S**2>=0.000
       6 -> 14        -0.28321
       8 -> 18         0.13929
       8 -> 19         0.33548
      11 -> 23         0.48362
      11 -> 24        -0.10955

 Excited State  57:      Singlet-A"    18.6367 eV   66.53 nm  f=0.0006  <S**2>=0.000
       7 -> 20        -0.16151
       8 -> 20        -0.39084
      10 -> 22         0.50165
      11 -> 22        -0.23533

 Excited State  58:      Singlet-A'    18.7469 eV   66.14 nm  f=0.0028  <S**2>=0.000
       6 -> 14         0.18036
       6 -> 15         0.14217
       7 -> 17         0.21229
       8 -> 18        -0.12489
       8 -> 19         0.17177
      10 -> 21         0.35126
      10 -> 23         0.24689
      11 -> 23         0.13449
      11 -> 24         0.33345

 Excited State  59:      Singlet-A'    18.8775 eV   65.68 nm  f=0.0043  <S**2>=0.000
       6 -> 15        -0.11590
       7 -> 17        -0.10553
       7 -> 19        -0.14364
      10 -> 21         0.10094
      10 -> 23         0.55122
      11 -> 24        -0.30638

 Excited State  60:      Singlet-A"    19.0063 eV   65.23 nm  f=0.0297  <S**2>=0.000
       5 -> 13         0.13374
      12 -> 27         0.67731

 Excited State  61:      Singlet-A'    19.0907 eV   64.94 nm  f=0.0302  <S**2>=0.000
       6 -> 14         0.34091
       6 -> 15        -0.31459
       6 -> 16        -0.33818
       8 -> 23         0.10000
      10 -> 21        -0.25825
      11 -> 23         0.15877
      11 -> 24         0.11561

 Excited State  62:      Singlet-A'    19.2270 eV   64.48 nm  f=0.0556  <S**2>=0.000
       6 -> 15        -0.28581
       6 -> 16        -0.11080
       7 -> 18         0.12863
      10 -> 21         0.46402
      10 -> 23        -0.29898
      11 -> 24        -0.15582

 Excited State  63:      Singlet-A'    19.4150 eV   63.86 nm  f=0.0028  <S**2>=0.000
       6 -> 15         0.43803
       6 -> 16        -0.38530
       6 -> 17         0.20323
       7 -> 17        -0.11689
       7 -> 18         0.16288
       7 -> 19        -0.13356
      10 -> 24         0.11328

 Excited State  64:      Singlet-A"    19.4692 eV   63.68 nm  f=0.0010  <S**2>=0.000
       9 -> 16         0.10719
       9 -> 21         0.66432

 Excited State  65:      Singlet-A'    19.4951 eV   63.60 nm  f=0.0507  <S**2>=0.000
       6 -> 16        -0.21388
       6 -> 17         0.10528
       7 -> 18        -0.37493
       7 -> 19         0.41550
      10 -> 24        -0.17424
      11 -> 24        -0.23641

 Excited State  66:      Singlet-A"    19.7549 eV   62.76 nm  f=0.0206  <S**2>=0.000
       7 -> 20         0.65694
      10 -> 22         0.21232

 Excited State  67:      Singlet-A'    19.8224 eV   62.55 nm  f=0.0014  <S**2>=0.000
       7 -> 18        -0.17247
       7 -> 19         0.14001
      10 -> 24         0.61286
      12 -> 28         0.10374

 Excited State  68:      Singlet-A'    20.0319 eV   61.89 nm  f=0.0085  <S**2>=0.000
       6 -> 17        -0.17427
       7 -> 18         0.45061
       7 -> 19         0.46988
       8 -> 21         0.13165

 Excited State  69:      Singlet-A'    20.0825 eV   61.74 nm  f=0.0531  <S**2>=0.000
       6 -> 16         0.18212
       6 -> 17         0.44098
       7 -> 18         0.16239
       7 -> 19         0.12250
       8 -> 21        -0.24886
      10 -> 24        -0.15142
      12 -> 28         0.30976

 Excited State  70:      Singlet-A"    20.2533 eV   61.22 nm  f=0.0060  <S**2>=0.000
       5 -> 13         0.58527
       8 -> 22         0.21245
       9 -> 23        -0.15068
      12 -> 27        -0.11983
      12 -> 30        -0.20534

 Excited State  71:      Singlet-A'    20.5446 eV   60.35 nm  f=0.0089  <S**2>=0.000
       6 -> 16         0.13807
       6 -> 17         0.21441
       8 -> 21         0.20604
       9 -> 22        -0.15984
      11 -> 25         0.54292
      12 -> 28        -0.17460

 Excited State  72:      Singlet-A"    20.6803 eV   59.95 nm  f=0.0001  <S**2>=0.000
       8 -> 22         0.16370
       9 -> 23         0.51851
       9 -> 24        -0.37791
      12 -> 30        -0.15810

 Excited State  73:      Singlet-A'    20.7167 eV   59.85 nm  f=0.0005  <S**2>=0.000
       6 -> 16         0.11128
       6 -> 17         0.25330
       8 -> 21         0.35826
       9 -> 22         0.47675
      11 -> 25        -0.11348

 Excited State  74:      Singlet-A"    20.7347 eV   59.80 nm  f=0.0039  <S**2>=0.000
       5 -> 13        -0.14714
       6 -> 20        -0.16668
       8 -> 22         0.58441
       9 -> 24         0.11058
      12 -> 30         0.27001

 Excited State  75:      Singlet-A'    20.7830 eV   59.66 nm  f=0.0254  <S**2>=0.000
       6 -> 17        -0.17947
       7 -> 21         0.10110
       8 -> 21        -0.30832
       8 -> 24         0.10384
       9 -> 22         0.45819
      11 -> 25         0.28206
      11 -> 26        -0.15187

 Excited State  76:      Singlet-A"    20.7853 eV   59.65 nm  f=0.0251  <S**2>=0.000
       9 -> 23        -0.28564
       9 -> 24        -0.24715
       9 -> 26         0.10244
      12 -> 29         0.55517

 Excited State  77:      Singlet-A'    21.0152 eV   59.00 nm  f=0.1925  <S**2>=0.000
       6 -> 17        -0.10754
       7 -> 21        -0.11918
       8 -> 21         0.28000
       8 -> 24         0.12662
      10 -> 27         0.10536
      11 -> 26        -0.33826
      12 -> 28         0.41753

 Excited State  78:      Singlet-A"    21.0596 eV   58.87 nm  f=0.0135  <S**2>=0.000
       5 -> 13         0.25487
       8 -> 22        -0.15415
       9 -> 23         0.26329
       9 -> 24         0.14878
      12 -> 29         0.23591
      12 -> 30         0.49789

 Excited State  79:      Singlet-A"    21.1088 eV   58.74 nm  f=0.0034  <S**2>=0.000
       5 -> 13        -0.13861
       9 -> 23         0.19604
       9 -> 24         0.45577
      12 -> 29         0.31967
      12 -> 30        -0.31442

 Excited State  80:      Singlet-A'    21.2461 eV   58.36 nm  f=0.0883  <S**2>=0.000
       8 -> 23         0.62585
       8 -> 24        -0.11154
      10 -> 25         0.14468
      12 -> 28         0.13051

 Excited State  81:      Singlet-A'    21.5330 eV   57.58 nm  f=0.0160  <S**2>=0.000
       6 -> 18         0.44442
       6 -> 19        -0.28916
       7 -> 21         0.13478
       8 -> 24         0.25934
      11 -> 26         0.22033
      12 -> 28         0.11281

 Excited State  82:      Singlet-A'    21.6251 eV   57.33 nm  f=0.0630  <S**2>=0.000
       7 -> 21         0.45882
       8 -> 24         0.13860
      10 -> 25         0.14029
      11 -> 25        -0.18760
      11 -> 26        -0.34151
      12 -> 28        -0.16422

 Excited State  83:      Singlet-A'    21.8175 eV   56.83 nm  f=0.1548  <S**2>=0.000
       6 -> 18         0.32927
       7 -> 21        -0.29184
       8 -> 23         0.11017
      10 -> 25        -0.27211
      10 -> 26         0.18791
      11 -> 25        -0.16402
      11 -> 26        -0.29301
      12 -> 28        -0.11165

 Excited State  84:      Singlet-A'    21.9973 eV   56.36 nm  f=0.0192  <S**2>=0.000
       6 -> 19        -0.21776
       7 -> 21        -0.12916
       8 -> 23        -0.14946
       8 -> 24        -0.34981
      10 -> 25         0.46964
      11 -> 26        -0.17136

 Excited State  85:      Singlet-A"    22.0670 eV   56.19 nm  f=0.0001  <S**2>=0.000
       6 -> 20         0.66453
       8 -> 22         0.18924

 Excited State  86:      Singlet-A'    22.1580 eV   55.95 nm  f=0.0029  <S**2>=0.000
       6 -> 18         0.31466
       6 -> 19         0.54945
      10 -> 25         0.15698
      11 -> 27         0.18733

 Excited State  87:      Singlet-A'    22.2983 eV   55.60 nm  f=0.0108  <S**2>=0.000
       6 -> 18        -0.17496
       7 -> 21        -0.24476
       7 -> 23         0.18039
       7 -> 24        -0.17558
       8 -> 24         0.37567
      10 -> 25         0.24004
      10 -> 26         0.19326
      11 -> 27         0.23256

 Excited State  88:      Singlet-A"    22.3350 eV   55.51 nm  f=0.0201  <S**2>=0.000
       7 -> 22         0.69101

 Excited State  89:      Singlet-A'    22.4410 eV   55.25 nm  f=0.0945  <S**2>=0.000
       5 -> 15        -0.11443
       6 -> 19        -0.10291
       7 -> 23         0.25549
       8 -> 24        -0.10104
      10 -> 25        -0.19595
      10 -> 26        -0.26443
      11 -> 26        -0.10666
      11 -> 27         0.48810

 The electronic state is 1-A'.
 Alpha  occ. eigenvalues --  -24.82017 -10.37139 -10.28556  -1.33264  -0.87598
 Alpha  occ. eigenvalues --   -0.70694  -0.62573  -0.57768  -0.55816  -0.49877
 Alpha  occ. eigenvalues --   -0.46483  -0.35448
 Alpha virt. eigenvalues --    0.07839   0.14558   0.16014   0.17809   0.20448
 Alpha virt. eigenvalues --    0.26480   0.28090   0.28840   0.36562   0.37859
 Alpha virt. eigenvalues --    0.38624   0.41999   0.47630   0.50510   0.53224

 Mulliken charges:
               1
     1  F   -0.201068
     2  C    0.112826
     3  C   -0.319932
     4  H    0.121120
     5  H    0.147551
     6  H    0.139502
 Sum of Mulliken charges =  -0.00000

 Dipole moment (field-independent basis, Debye):
    X=              1.0950    Y=              0.8088    Z=              0.0000  Tot=              1.3613
 Quadrupole moment (field-independent basis, Debye-Ang):
   XX=            -17.4286   YY=            -15.3831   ZZ=            -19.0454
   XY=             -0.7711   XZ=              0.0000   YZ=              0.0000

 Normal termination of Gaussian 16 at Sat Aug 14 06:23:12 2021.
