 Gaussian 16, Revision C.01,
 Gaussian 16:  EM64L-G16RevC.01  3-Jul-2019

 ----------------------------------------------------------------------
 #P TD(Nstates=10000) wB97XD/def2TZVP SCF(maxcycles=100) Int(Grid=ultra
 fine)
 ----------------------------------------------------------------------

 ---------------------
 xGDB7_00001_tier4.com
 ---------------------
 Symbolic Z-matrix:
 Charge =  0 Multiplicity = 1

                         Standard orientation:
 ---------------------------------------------------------------------
 Center     Atomic      Atomic             Coordinates (Angstroms)
 Number     Number       Type             X           Y           Z
 ---------------------------------------------------------------------
      1          7           0       -0.000002   -0.000000   -0.110463
      2          1           0       -0.147185    0.930214    0.257758
      3          1           0       -0.731998   -0.592574    0.257757
      4          1           0        0.879196   -0.337638    0.257728
 ---------------------------------------------------------------------

 SCF Done:  E(RwB97XD) =  -56.5643359278     A.U. after   12 cycles

 Excitation energies and oscillator strengths:

 Excited State   1:      Singlet-A      7.1074 eV  174.44 nm  f=0.0586  <S**2>=0.000
       5 ->  6         0.70552
 This state for optimization and/or second-order correction.
 Total Energy, E(TD-HF/TD-DFT) =  -56.3031429663
 Copying the excited state density for this state as the 1-particle RhoCI density.

 Excited State   2:      Singlet-A      9.2865 eV  133.51 nm  f=0.0245  <S**2>=0.000
       5 ->  7         0.70029

 Excited State   3:      Singlet-A      9.2865 eV  133.51 nm  f=0.0245  <S**2>=0.000
       5 ->  8         0.70029

 Excited State   4:      Singlet-A     12.4667 eV   99.45 nm  f=0.1992  <S**2>=0.000
       4 ->  6         0.70346

 Excited State   5:      Singlet-A     12.4668 eV   99.45 nm  f=0.1992  <S**2>=0.000
       3 ->  6         0.70346

 Excited State   6:      Singlet-A     13.9434 eV   88.92 nm  f=0.0368  <S**2>=0.000
       5 ->  9         0.69036

 Excited State   7:      Singlet-A     13.9435 eV   88.92 nm  f=0.0368  <S**2>=0.000
       5 -> 10         0.69035

 Excited State   8:      Singlet-A     14.6294 eV   84.75 nm  f=0.0000  <S**2>=0.000
       3 ->  8        -0.48890
       4 ->  7         0.48969

 Excited State   9:      Singlet-A     14.6744 eV   84.49 nm  f=0.0782  <S**2>=0.000
       3 ->  7        -0.38441
       4 ->  8        -0.38553
       5 -> 11         0.43616

 Excited State  10:      Singlet-A     14.6990 eV   84.35 nm  f=0.1602  <S**2>=0.000
       3 ->  7         0.48907
       4 ->  8        -0.48817
       5 ->  9         0.10442

 Excited State  11:      Singlet-A     14.6990 eV   84.35 nm  f=0.1602  <S**2>=0.000
       3 ->  8         0.48903
       4 ->  7         0.48821
       5 -> 10         0.10443

 Excited State  12:      Singlet-A     17.5157 eV   70.78 nm  f=0.0166  <S**2>=0.000
       3 ->  7         0.27120
       4 ->  8         0.27120
       5 -> 11         0.52028
       5 -> 12        -0.22541

 Excited State  13:      Singlet-A     18.2813 eV   67.82 nm  f=0.0000  <S**2>=0.000
       3 ->  7         0.11703
       4 ->  8         0.11703
       5 -> 11         0.12839
       5 -> 12         0.65709

 Excited State  14:      Singlet-A     19.3049 eV   64.22 nm  f=0.0000  <S**2>=0.000
       3 ->  9        -0.49852
       4 -> 10         0.49855

 Excited State  15:      Singlet-A     19.3266 eV   64.15 nm  f=0.0983  <S**2>=0.000
       3 -> 10         0.30002
       4 ->  9         0.30008
       5 -> 13         0.55646

 Excited State  16:      Singlet-A     19.6365 eV   63.14 nm  f=0.0624  <S**2>=0.000
       3 -> 10        -0.21918
       4 ->  9         0.21916
       5 -> 14         0.62315

 Excited State  17:      Singlet-A     19.6366 eV   63.14 nm  f=0.0624  <S**2>=0.000
       3 ->  9        -0.21919
       4 -> 10        -0.21916
       5 -> 15         0.62315

 Excited State  18:      Singlet-A     20.2318 eV   61.28 nm  f=0.4933  <S**2>=0.000
       3 -> 10        -0.39460
       4 ->  9        -0.39553
       5 -> 13         0.42424

 Excited State  19:      Singlet-A     20.2814 eV   61.13 nm  f=0.1424  <S**2>=0.000
       3 ->  9         0.15113
       3 -> 10         0.36514
       4 ->  9        -0.36426
       4 -> 10         0.15114
       4 -> 11         0.25613
       5 -> 14         0.25023
       5 -> 15         0.19816

 Excited State  20:      Singlet-A     20.2814 eV   61.13 nm  f=0.1424  <S**2>=0.000
       3 ->  9         0.36472
       3 -> 10        -0.15132
       3 -> 11         0.25609
       4 ->  9         0.15097
       4 -> 10         0.36470
       5 -> 14        -0.19815
       5 -> 15         0.25023

 Excited State  21:      Singlet-A     20.6651 eV   60.00 nm  f=0.0868  <S**2>=0.000
       3 -> 10        -0.15150
       4 ->  9         0.15146
       4 -> 11         0.65070
       4 -> 12         0.10125

 Excited State  22:      Singlet-A     20.6652 eV   60.00 nm  f=0.0867  <S**2>=0.000
       3 ->  9        -0.15146
       3 -> 11         0.65072
       3 -> 12         0.10125
       4 -> 10        -0.15146

 Excited State  23:      Singlet-A     23.6589 eV   52.40 nm  f=0.0003  <S**2>=0.000
       2 ->  6         0.66891
       3 -> 14        -0.10689
       3 -> 15         0.11209
       4 -> 14         0.11210
       4 -> 15         0.10690

 Excited State  24:      Singlet-A     23.8860 eV   51.91 nm  f=0.1211  <S**2>=0.000
       4 -> 12         0.67502
       4 -> 13         0.11150

 Excited State  25:      Singlet-A     23.8861 eV   51.91 nm  f=0.1211  <S**2>=0.000
       3 -> 12         0.67501
       3 -> 13         0.11151

 Excited State  26:      Singlet-A     24.5598 eV   50.48 nm  f=0.0348  <S**2>=0.000
       3 -> 15        -0.17889
       4 -> 13         0.64334
       4 -> 14         0.17889

 Excited State  27:      Singlet-A     24.5599 eV   50.48 nm  f=0.0348  <S**2>=0.000
       3 -> 13         0.64333
       3 -> 14        -0.17890
       4 -> 15        -0.17892

 Excited State  28:      Singlet-A     25.1359 eV   49.33 nm  f=0.0000  <S**2>=0.000
       3 -> 14        -0.36026
       3 -> 15        -0.34352
       4 -> 14        -0.34357
       4 -> 15         0.36029

 Excited State  29:      Singlet-A     25.5907 eV   48.45 nm  f=0.0946  <S**2>=0.000
       3 -> 13         0.20251
       3 -> 14         0.44388
       4 -> 13        -0.10155
       4 -> 15         0.44387

 Excited State  30:      Singlet-A     25.5907 eV   48.45 nm  f=0.0946  <S**2>=0.000
       3 -> 13         0.10156
       3 -> 15         0.44391
       4 -> 13         0.20248
       4 -> 14        -0.44386

 Excited State  31:      Singlet-A     25.8246 eV   48.01 nm  f=0.0304  <S**2>=0.000
       2 ->  7         0.68366
       3 -> 13         0.10609

 Excited State  32:      Singlet-A     25.8246 eV   48.01 nm  f=0.0304  <S**2>=0.000
       2 ->  8         0.68367
       4 -> 13         0.10607

 Excited State  33:      Singlet-A     28.9350 eV   42.85 nm  f=0.0042  <S**2>=0.000
       2 ->  6        -0.20057
       2 -> 12        -0.20172
       3 -> 14        -0.30230
       3 -> 15         0.31702
       4 -> 14         0.31701
       4 -> 15         0.30229
       5 -> 11         0.13153

 Excited State  34:      Singlet-A     30.3241 eV   40.89 nm  f=0.3218  <S**2>=0.000
       2 -> 10         0.33130
       5 -> 16         0.59571

 Excited State  35:      Singlet-A     30.3241 eV   40.89 nm  f=0.3218  <S**2>=0.000
       2 ->  9         0.33139
       5 -> 17         0.59567

 Excited State  36:      Singlet-A     30.6876 eV   40.40 nm  f=0.0410  <S**2>=0.000
       2 ->  9         0.62173
       5 -> 17        -0.31307

 Excited State  37:      Singlet-A     30.6876 eV   40.40 nm  f=0.0409  <S**2>=0.000
       2 -> 10         0.62178
       5 -> 16        -0.31298

 Excited State  38:      Singlet-A     31.7796 eV   39.01 nm  f=0.0879  <S**2>=0.000
       2 -> 11         0.69944

 Excited State  39:      Singlet-A     34.9286 eV   35.50 nm  f=0.0000  <S**2>=0.000
       3 -> 17        -0.49989
       4 -> 16         0.49994

 Excited State  40:      Singlet-A     35.2668 eV   35.16 nm  f=0.0623  <S**2>=0.000
       2 -> 12        -0.24781
       2 -> 13         0.51207
       3 -> 16        -0.25360
       4 -> 17        -0.25365
       5 -> 18        -0.20488

 Excited State  41:      Singlet-A     35.7689 eV   34.66 nm  f=0.0652  <S**2>=0.000
       2 -> 12        -0.10404
       2 -> 13         0.39956
       3 -> 16         0.30126
       4 -> 17         0.30145
       5 -> 18         0.38196

 Excited State  42:      Singlet-A     35.9251 eV   34.51 nm  f=0.6147  <S**2>=0.000
       2 -> 14        -0.18414
       2 -> 15         0.29527
       3 -> 16        -0.11855
       3 -> 17         0.39906
       4 -> 16         0.39902
       4 -> 17         0.11855

 Excited State  43:      Singlet-A     35.9252 eV   34.51 nm  f=0.6147  <S**2>=0.000
       2 -> 14         0.29530
       2 -> 15         0.18416
       3 -> 16         0.39911
       3 -> 17         0.11858
       4 -> 16         0.11852
       4 -> 17        -0.39895

 Excited State  44:      Singlet-A     36.3310 eV   34.13 nm  f=0.0008  <S**2>=0.000
       2 -> 12         0.61395
       2 -> 13         0.25713

 Excited State  45:      Singlet-A     36.7076 eV   33.78 nm  f=0.0130  <S**2>=0.000
       2 -> 14         0.43338
       2 -> 15        -0.42523
       3 -> 16        -0.10916
       3 -> 17         0.18797
       4 -> 16         0.18797
       4 -> 17         0.10915
       5 -> 20         0.14668

 Excited State  46:      Singlet-A     36.7076 eV   33.78 nm  f=0.0130  <S**2>=0.000
       2 -> 14         0.42521
       2 -> 15         0.43338
       3 -> 16        -0.18801
       3 -> 17        -0.10917
       4 -> 16        -0.10914
       4 -> 17         0.18798
       5 -> 19        -0.14669

 Excited State  47:      Singlet-A     39.4328 eV   31.44 nm  f=1.1658  <S**2>=0.000
       2 -> 13        -0.10276
       3 -> 16        -0.27358
       3 -> 20        -0.12640
       4 -> 17        -0.27351
       4 -> 19        -0.12645
       5 -> 18         0.53208

 Excited State  48:      Singlet-A     39.5288 eV   31.37 nm  f=0.1140  <S**2>=0.000
       4 -> 18         0.13319
       5 -> 19         0.66821

 Excited State  49:      Singlet-A     39.5288 eV   31.37 nm  f=0.1140  <S**2>=0.000
       3 -> 18         0.13319
       5 -> 20         0.66821

 Excited State  50:      Singlet-A     42.0448 eV   29.49 nm  f=0.0775  <S**2>=0.000
       4 -> 18         0.67768

 Excited State  51:      Singlet-A     42.0450 eV   29.49 nm  f=0.0775  <S**2>=0.000
       3 -> 18         0.67768

 Excited State  52:      Singlet-A     44.5234 eV   27.85 nm  f=0.0000  <S**2>=0.000
       3 -> 19        -0.49338
       4 -> 20         0.49339

 Excited State  53:      Singlet-A     45.8388 eV   27.05 nm  f=0.3268  <S**2>=0.000
       3 -> 20         0.47274
       4 -> 19         0.47426
       5 -> 18         0.14025

 Excited State  54:      Singlet-A     45.8835 eV   27.02 nm  f=0.1547  <S**2>=0.000
       2 -> 16        -0.23375
       3 -> 18         0.10277
       3 -> 19         0.42838
       3 -> 20        -0.13462
       4 -> 19         0.13413
       4 -> 20         0.42845

 Excited State  55:      Singlet-A     45.8835 eV   27.02 nm  f=0.1547  <S**2>=0.000
       2 -> 17        -0.23375
       3 -> 19         0.13450
       3 -> 20         0.42918
       4 -> 18         0.10276
       4 -> 19        -0.42766
       4 -> 20         0.13425

 Excited State  56:      Singlet-A     46.6408 eV   26.58 nm  f=0.0993  <S**2>=0.000
       2 -> 16         0.49468
       2 -> 17        -0.43755
       3 -> 20        -0.16057
       4 -> 19         0.16054

 Excited State  57:      Singlet-A     46.6408 eV   26.58 nm  f=0.0993  <S**2>=0.000
       2 -> 16         0.43755
       2 -> 17         0.49468
       3 -> 19         0.16056
       4 -> 20         0.16055

 Excited State  58:      Singlet-A     48.6878 eV   25.47 nm  f=0.0000  <S**2>=0.000
       5 -> 21         0.70687

 Excited State  59:      Singlet-A     52.1414 eV   23.78 nm  f=0.0001  <S**2>=0.000
       5 -> 22         0.70045

 Excited State  60:      Singlet-A     52.1416 eV   23.78 nm  f=0.0001  <S**2>=0.000
       5 -> 23         0.70045

 Excited State  61:      Singlet-A     53.0869 eV   23.35 nm  f=0.0818  <S**2>=0.000
       2 -> 18         0.69845

 Excited State  62:      Singlet-A     54.1975 eV   22.88 nm  f=0.0144  <S**2>=0.000
       5 -> 24         0.69295

 Excited State  63:      Singlet-A     54.2758 eV   22.84 nm  f=0.0560  <S**2>=0.000
       2 -> 20        -0.11590
       3 -> 21         0.18695
       4 -> 21         0.66824

 Excited State  64:      Singlet-A     54.2761 eV   22.84 nm  f=0.0560  <S**2>=0.000
       2 -> 19         0.11594
       3 -> 21         0.66823
       4 -> 21        -0.18695

 Excited State  65:      Singlet-A     56.0944 eV   22.10 nm  f=0.0102  <S**2>=0.000
       2 -> 19         0.68814
       3 -> 21        -0.11376

 Excited State  66:      Singlet-A     56.0944 eV   22.10 nm  f=0.0102  <S**2>=0.000
       2 -> 20         0.68814
       4 -> 21         0.11372

 Excited State  67:      Singlet-A     57.4941 eV   21.56 nm  f=0.0000  <S**2>=0.000
       3 -> 23        -0.48393
       4 -> 22         0.51420

 Excited State  68:      Singlet-A     57.4966 eV   21.56 nm  f=0.0228  <S**2>=0.000
       3 -> 22         0.45032
       4 -> 23         0.45636
       5 -> 25         0.28758

 Excited State  69:      Singlet-A     57.4988 eV   21.56 nm  f=0.0054  <S**2>=0.000
       3 -> 22         0.49787
       4 -> 23        -0.49095

 Excited State  70:      Singlet-A     57.4990 eV   21.56 nm  f=0.0054  <S**2>=0.000
       3 -> 23         0.50925
       4 -> 22         0.47903

 Excited State  71:      Singlet-A     59.2976 eV   20.91 nm  f=0.0011  <S**2>=0.000
       4 -> 24         0.69613

 Excited State  72:      Singlet-A     59.2977 eV   20.91 nm  f=0.0011  <S**2>=0.000
       3 -> 24         0.69613

 Excited State  73:      Singlet-A     59.4031 eV   20.87 nm  f=0.1131  <S**2>=0.000
       3 -> 22        -0.18792
       3 -> 27         0.11210
       4 -> 23        -0.18790
       4 -> 26         0.11210
       5 -> 25         0.62134

 Excited State  74:      Singlet-A     59.9899 eV   20.67 nm  f=0.0645  <S**2>=0.000
       5 -> 26         0.68957
       5 -> 27        -0.13491

 Excited State  75:      Singlet-A     59.9899 eV   20.67 nm  f=0.0645  <S**2>=0.000
       5 -> 26         0.13491
       5 -> 27         0.68957

 Excited State  76:      Singlet-A     63.9137 eV   19.40 nm  f=0.0014  <S**2>=0.000
       4 -> 25         0.70206

 Excited State  77:      Singlet-A     63.9138 eV   19.40 nm  f=0.0014  <S**2>=0.000
       3 -> 25         0.70206

 Excited State  78:      Singlet-A     64.8488 eV   19.12 nm  f=0.0000  <S**2>=0.000
       2 -> 21         0.70154

 Excited State  79:      Singlet-A     65.2503 eV   19.00 nm  f=0.0130  <S**2>=0.000
       3 -> 26         0.23934
       3 -> 27        -0.43541
       4 -> 26         0.43548
       4 -> 27         0.23943

 Excited State  80:      Singlet-A     65.2504 eV   19.00 nm  f=0.0130  <S**2>=0.000
       3 -> 26         0.43542
       3 -> 27         0.23937
       4 -> 26        -0.23939
       4 -> 27         0.43546

 Excited State  81:      Singlet-A     65.6460 eV   18.89 nm  f=0.0000  <S**2>=0.000
       3 -> 26         0.44484
       3 -> 27        -0.22052
       4 -> 26        -0.22044
       4 -> 27        -0.44476

 Excited State  82:      Singlet-A     66.5005 eV   18.64 nm  f=0.0052  <S**2>=0.000
       3 -> 26        -0.17931
       3 -> 27        -0.36175
       4 -> 26        -0.36171
       4 -> 27         0.17930
       5 -> 25         0.10743
       5 -> 28         0.37589

 Excited State  83:      Singlet-A     67.9544 eV   18.25 nm  f=0.0028  <S**2>=0.000
       2 -> 24        -0.14540
       3 -> 27         0.19453
       4 -> 26         0.19451
       5 -> 28         0.57725
       5 -> 31         0.17926

 Excited State  84:      Singlet-A     68.2244 eV   18.17 nm  f=0.0343  <S**2>=0.000
       2 -> 22         0.70180

 Excited State  85:      Singlet-A     68.2246 eV   18.17 nm  f=0.0343  <S**2>=0.000
       2 -> 23         0.70180

 Excited State  86:      Singlet-A     69.3444 eV   17.88 nm  f=0.0018  <S**2>=0.000
       5 -> 29         0.70359

 Excited State  87:      Singlet-A     69.3445 eV   17.88 nm  f=0.0018  <S**2>=0.000
       5 -> 30         0.70359

 Excited State  88:      Singlet-A     70.3559 eV   17.62 nm  f=0.0499  <S**2>=0.000
       2 -> 24         0.40727
       5 -> 31         0.57065

 Excited State  89:      Singlet-A     71.0077 eV   17.46 nm  f=0.0107  <S**2>=0.000
       2 -> 24         0.53548
       2 -> 25        -0.10876
       3 -> 32        -0.10984
       4 -> 33        -0.10984
       5 -> 28         0.11921
       5 -> 31        -0.35336

 Excited State  90:      Singlet-A     72.3115 eV   17.15 nm  f=0.0043  <S**2>=0.000
       3 -> 28        -0.13440
       4 -> 28         0.36820
       5 -> 32        -0.34663
       5 -> 33         0.46134

 Excited State  91:      Singlet-A     72.3115 eV   17.15 nm  f=0.0043  <S**2>=0.000
       3 -> 28         0.36807
       4 -> 28         0.13445
       5 -> 32         0.46143
       5 -> 33         0.34662

 Excited State  92:      Singlet-A     72.8417 eV   17.02 nm  f=0.0037  <S**2>=0.000
       3 -> 28        -0.12602
       4 -> 28         0.56280
       5 -> 32         0.19751
       5 -> 33        -0.34949

 Excited State  93:      Singlet-A     72.8418 eV   17.02 nm  f=0.0037  <S**2>=0.000
       3 -> 28         0.56288
       4 -> 28         0.12600
       5 -> 32        -0.34937
       5 -> 33        -0.19751

 Excited State  94:      Singlet-A     74.1427 eV   16.72 nm  f=0.0000  <S**2>=0.000
       3 -> 29        -0.19944
       3 -> 30        -0.45772
       4 -> 29         0.45782
       4 -> 30        -0.19949

 Excited State  95:      Singlet-A     74.3990 eV   16.66 nm  f=0.0209  <S**2>=0.000
       2 -> 25         0.23714
       3 -> 29         0.42765
       3 -> 30        -0.18628
       4 -> 29         0.18644
       4 -> 30         0.42771

 Excited State  96:      Singlet-A     74.6041 eV   16.62 nm  f=0.0019  <S**2>=0.000
       3 -> 30         0.49074
       4 -> 29         0.49060

 Excited State  97:      Singlet-A     74.6041 eV   16.62 nm  f=0.0019  <S**2>=0.000
       3 -> 29         0.49070
       4 -> 30        -0.49064

 Excited State  98:      Singlet-A     75.0247 eV   16.53 nm  f=0.0350  <S**2>=0.000
       2 -> 25         0.64558
       3 -> 29        -0.15657
       4 -> 30        -0.15652

 Excited State  99:      Singlet-A     75.4672 eV   16.43 nm  f=0.0019  <S**2>=0.000
       2 -> 27        -0.10084
       3 -> 31        -0.33169
       4 -> 31         0.59697

 Excited State 100:      Singlet-A     75.4672 eV   16.43 nm  f=0.0019  <S**2>=0.000
       2 -> 26         0.10082
       3 -> 31         0.59697
       4 -> 31         0.33169

 Excited State 101:      Singlet-A     76.3391 eV   16.24 nm  f=0.0411  <S**2>=0.000
       2 -> 26         0.66312
       2 -> 27        -0.11873
       4 -> 31        -0.13955

 Excited State 102:      Singlet-A     76.3391 eV   16.24 nm  f=0.0411  <S**2>=0.000
       2 -> 26         0.11873
       2 -> 27         0.66311
       3 -> 31        -0.13956

 Excited State 103:      Singlet-A     77.6888 eV   15.96 nm  f=0.0113  <S**2>=0.000
       2 -> 26        -0.12945
       3 -> 32         0.38143
       3 -> 33         0.29096
       4 -> 32         0.29108
       4 -> 33        -0.38141

 Excited State 104:      Singlet-A     77.6888 eV   15.96 nm  f=0.0113  <S**2>=0.000
       2 -> 27        -0.12945
       3 -> 32        -0.29099
       3 -> 33         0.38133
       4 -> 32         0.38151
       4 -> 33         0.29104

 Excited State 105:      Singlet-A     78.1006 eV   15.87 nm  f=0.0000  <S**2>=0.000
       3 -> 32        -0.14481
       3 -> 33         0.47800
       4 -> 32        -0.47779
       4 -> 33        -0.14480

 Excited State 106:      Singlet-A     79.6178 eV   15.57 nm  f=0.0000  <S**2>=0.000
       2 -> 24         0.10663
       2 -> 25         0.10868
       3 -> 32         0.44612
       3 -> 33         0.13518
       4 -> 32        -0.13517
       4 -> 33         0.44611

 Excited State 107:      Singlet-A     83.4984 eV   14.85 nm  f=0.0123  <S**2>=0.000
       2 -> 28         0.69886

 Excited State 108:      Singlet-A     85.3071 eV   14.53 nm  f=0.0001  <S**2>=0.000
       2 -> 29         0.70433

 Excited State 109:      Singlet-A     85.3071 eV   14.53 nm  f=0.0001  <S**2>=0.000
       2 -> 30         0.70433

 Excited State 110:      Singlet-A     87.0683 eV   14.24 nm  f=0.0000  <S**2>=0.000
       2 -> 31         0.22729
       5 -> 34         0.66855

 Excited State 111:      Singlet-A     87.3249 eV   14.20 nm  f=0.0204  <S**2>=0.000
       2 -> 31         0.65212
       5 -> 34        -0.22503

 Excited State 112:      Singlet-A     88.7050 eV   13.98 nm  f=0.0276  <S**2>=0.000
       2 -> 32         0.70399

 Excited State 113:      Singlet-A     88.7051 eV   13.98 nm  f=0.0276  <S**2>=0.000
       2 -> 33         0.70399

 Excited State 114:      Singlet-A     92.0732 eV   13.47 nm  f=0.0000  <S**2>=0.000
       3 -> 34        -0.38652
       4 -> 34         0.56445
       5 -> 35         0.14205

 Excited State 115:      Singlet-A     92.0732 eV   13.47 nm  f=0.0000  <S**2>=0.000
       3 -> 34         0.56451
       4 -> 34         0.38649
       5 -> 36         0.14184

 Excited State 116:      Singlet-A     92.3896 eV   13.42 nm  f=0.0013  <S**2>=0.000
       4 -> 34        -0.16830
       5 -> 35         0.68620

 Excited State 117:      Singlet-A     92.3901 eV   13.42 nm  f=0.0013  <S**2>=0.000
       3 -> 34        -0.16806
       5 -> 36         0.68626

 Excited State 118:      Singlet-A     97.4505 eV   12.72 nm  f=0.0000  <S**2>=0.000
       3 -> 36         0.49567
       4 -> 35         0.49622

 Excited State 119:      Singlet-A     97.5785 eV   12.71 nm  f=0.0000  <S**2>=0.000
       3 -> 35         0.49983
       4 -> 36        -0.49908

 Excited State 120:      Singlet-A     97.9591 eV   12.66 nm  f=0.0009  <S**2>=0.000
       3 -> 36         0.49831
       4 -> 35        -0.49776

 Excited State 121:      Singlet-A     97.9591 eV   12.66 nm  f=0.0009  <S**2>=0.000
       3 -> 35         0.49766
       4 -> 36         0.49840

 Excited State 122:      Singlet-A    103.2449 eV   12.01 nm  f=0.0002  <S**2>=0.000
       2 -> 34         0.70250

 The electronic state is 1-A.
 Alpha  occ. eigenvalues --  -14.40557  -0.94930  -0.54787  -0.54786  -0.34993
 Alpha virt. eigenvalues --    0.10783   0.18990   0.18990   0.38485   0.38485
 Alpha virt. eigenvalues --    0.43742   0.53171   0.57705   0.60567   0.60567
 Alpha virt. eigenvalues --    0.98886   0.98886   1.23748   1.33229   1.33229

 Mulliken charges:
               1
     1  N   -0.699274
     2  H    0.233090
     3  H    0.233091
     4  H    0.233093
 Sum of Mulliken charges =  -0.00000

 Dipole moment (field-independent basis, Debye):
    X=              0.0000    Y=             -0.0000    Z=              1.6971  Tot=              1.6971
 Quadrupole moment (field-independent basis, Debye-Ang):
   XX=             -6.1401   YY=             -6.1402   ZZ=             -9.2211
   XY=              0.0000   XZ=             -0.0001   YZ=              0.0000

 1\1\GINC-HEL19\SP\RwB97XD TD-FC\def2TZVP\H3N1\PRAKRITI\14-Aug-2021\0\\
 #P TD(Nstates=10000) wB97XD/def2TZVP SCF(maxcycles=100) Int(Grid=ultra
 fine)\\xGDB7_00001_tier4.com\\0,1\N,0,0.000002,0.,0.110463\H,0,0.15411
 1,0.929092,-0.257758\H,0,0.727563,-0.598011,-0.257757\H,0,-0.881687,-0
 .331078,-0.257728\\Version=EM64L-G16RevC.01\State=1-A\HF=-56.5643359\R
 MSD=6.179e-09\PG=C01 [X(H3N1)]\\@
 The archive entry for this job was punched.

 Normal termination of Gaussian 16 at Sat Aug 14 06:19:39 2021.
