 Gaussian 16, Revision C.01,
 Gaussian 16:  EM64L-G16RevC.01  3-Jul-2019

 ----------------------------------------------------------------------
 #P TD(Nstates=10000) wB97XD/def2TZVP SCF(maxcycles=100) Int(Grid=ultra
 fine)
 ----------------------------------------------------------------------

 ---------------------
 xGDB7_00001_tier4.com
 ---------------------
 Symbolic Z-matrix:
 Charge =  0 Multiplicity = 1

                         Standard orientation:
 ---------------------------------------------------------------------
 Center     Atomic      Atomic             Coordinates (Angstroms)
 Number     Number       Type             X           Y           Z
 ---------------------------------------------------------------------
      1          8           0        0.000000   -0.000000    0.116015
      2          1           0        0.000000    0.761895   -0.464058
      3          1           0       -0.000000   -0.761895   -0.464058
 ---------------------------------------------------------------------

 SCF Done:  E(RwB97XD) =  -76.4376926775     A.U. after   12 cycles

 Excitation energies and oscillator strengths:

 Excited State   1:      Singlet-B1     7.9842 eV  155.29 nm  f=0.0362  <S**2>=0.000
       5 ->  6         0.70586
 This state for optimization and/or second-order correction.
 Total Energy, E(TD-HF/TD-DFT) =  -76.1442799721
 Copying the excited state density for this state as the 1-particle RhoCI density.

 Excited State   2:      Singlet-A2     9.9194 eV  124.99 nm  f=0.0000  <S**2>=0.000
       5 ->  7         0.70293

 Excited State   3:      Singlet-A1    10.1937 eV  121.63 nm  f=0.1050  <S**2>=0.000
       4 ->  6         0.70398

 Excited State   4:      Singlet-B2    12.2282 eV  101.39 nm  f=0.0705  <S**2>=0.000
       4 ->  7         0.70495

 Excited State   5:      Singlet-B2    14.0705 eV   88.12 nm  f=0.2281  <S**2>=0.000
       3 ->  6         0.70517

 Excited State   6:      Singlet-A1    16.3878 eV   75.66 nm  f=0.0941  <S**2>=0.000
       3 ->  7         0.66818
       5 -> 10        -0.20903

 Excited State   7:      Singlet-A2    16.5886 eV   74.74 nm  f=0.0000  <S**2>=0.000
       5 ->  8         0.70466

 Excited State   8:      Singlet-B1    18.1949 eV   68.14 nm  f=0.0018  <S**2>=0.000
       5 ->  9         0.58202
       5 -> 11         0.40084

 Excited State   9:      Singlet-B1    18.5859 eV   66.71 nm  f=0.1163  <S**2>=0.000
       5 ->  9        -0.39869
       5 -> 11         0.58035

 Excited State  10:      Singlet-A1    19.1038 eV   64.90 nm  f=0.0148  <S**2>=0.000
       3 ->  7         0.12139
       4 ->  9        -0.21941
       4 -> 11        -0.34029
       5 -> 10         0.56342

 Excited State  11:      Singlet-B2    19.4111 eV   63.87 nm  f=0.1838  <S**2>=0.000
       4 ->  8         0.69351

 Excited State  12:      Singlet-A1    20.2746 eV   61.15 nm  f=0.0026  <S**2>=0.000
       4 ->  9         0.65613
       4 -> 11        -0.22979
       5 -> 10         0.10975

 Excited State  13:      Singlet-B1    20.3769 eV   60.85 nm  f=0.0000  <S**2>=0.000
       4 -> 10         0.70566

 Excited State  14:      Singlet-A2    22.2015 eV   55.84 nm  f=0.0000  <S**2>=0.000
       5 -> 12         0.70496

 Excited State  15:      Singlet-A1    22.7361 eV   54.53 nm  f=0.0837  <S**2>=0.000
       2 ->  6         0.10174
       3 ->  7         0.15587
       3 ->  8        -0.39721
       3 -> 12        -0.13968
       4 ->  9         0.12095
       4 -> 11         0.45007
       5 -> 10         0.25512

 Excited State  16:      Singlet-B1    23.2722 eV   53.28 nm  f=0.2975  <S**2>=0.000
       5 -> 13         0.70614

 Excited State  17:      Singlet-A1    24.1072 eV   51.43 nm  f=0.1425  <S**2>=0.000
       2 ->  6         0.11494
       3 ->  8         0.56815
       3 -> 12        -0.20347
       4 -> 11         0.28190
       5 -> 10         0.16515

 Excited State  18:      Singlet-B2    24.2597 eV   51.11 nm  f=0.0418  <S**2>=0.000
       3 ->  9         0.16827
       4 -> 12         0.68368

 Excited State  19:      Singlet-A2    24.3893 eV   50.84 nm  f=0.0000  <S**2>=0.000
       3 -> 10         0.70691

 Excited State  20:      Singlet-B2    24.4855 eV   50.64 nm  f=0.0353  <S**2>=0.000
       3 ->  9         0.43659
       3 -> 11         0.54173
       4 -> 12        -0.12176

 Excited State  21:      Singlet-A1    25.1884 eV   49.22 nm  f=0.0817  <S**2>=0.000
       4 -> 13         0.70036

 Excited State  22:      Singlet-B2    25.6433 eV   48.35 nm  f=0.3646  <S**2>=0.000
       3 ->  9         0.51877
       3 -> 11        -0.44674
       4 ->  8        -0.11612
       4 -> 12        -0.11250

 Excited State  23:      Singlet-A1    27.7207 eV   44.73 nm  f=0.0214  <S**2>=0.000
       2 ->  6         0.62780
       3 -> 12         0.31985

 Excited State  24:      Singlet-B2    28.8190 eV   43.02 nm  f=0.0176  <S**2>=0.000
       2 ->  7        -0.34163
       3 -> 13         0.61773

 Excited State  25:      Singlet-B2    29.9258 eV   41.43 nm  f=0.0189  <S**2>=0.000
       2 ->  7         0.61542
       3 -> 13         0.34033

 Excited State  26:      Singlet-A1    31.5898 eV   39.25 nm  f=0.0020  <S**2>=0.000
       2 ->  6        -0.28127
       2 ->  9        -0.10848
       3 -> 12         0.56491
       4 -> 11         0.18457
       5 -> 10         0.16433

 Excited State  27:      Singlet-B2    36.5520 eV   33.92 nm  f=0.0017  <S**2>=0.000
       2 ->  8         0.70464

 Excited State  28:      Singlet-B1    37.6738 eV   32.91 nm  f=0.0999  <S**2>=0.000
       2 -> 10         0.21795
       5 -> 14         0.67132

 Excited State  29:      Singlet-A1    37.8821 eV   32.73 nm  f=0.0680  <S**2>=0.000
       2 ->  9         0.62159
       2 -> 11         0.31413

 Excited State  30:      Singlet-B1    38.2446 eV   32.42 nm  f=0.0628  <S**2>=0.000
       2 -> 10         0.66774
       5 -> 14        -0.21099

 Excited State  31:      Singlet-A1    38.8438 eV   31.92 nm  f=0.0885  <S**2>=0.000
       2 ->  9        -0.29488
       2 -> 11         0.60941
       2 -> 13         0.15334

 Excited State  32:      Singlet-B2    39.5422 eV   31.35 nm  f=0.5003  <S**2>=0.000
       3 -> 14        -0.15501
       5 -> 15         0.67324

 Excited State  33:      Singlet-A2    40.2617 eV   30.79 nm  f=0.0000  <S**2>=0.000
       4 -> 15         0.70696

 Excited State  34:      Singlet-A1    40.3600 eV   30.72 nm  f=0.0299  <S**2>=0.000
       4 -> 14         0.54847
       5 -> 16         0.44128

 Excited State  35:      Singlet-B2    42.2144 eV   29.37 nm  f=0.0807  <S**2>=0.000
       2 -> 12         0.69046
       3 -> 14         0.12917

 Excited State  36:      Singlet-A1    43.4397 eV   28.54 nm  f=0.0863  <S**2>=0.000
       2 -> 11        -0.12953
       2 -> 13         0.61004
       4 -> 14        -0.17245
       5 -> 16         0.24477

 Excited State  37:      Singlet-B1    43.7356 eV   28.35 nm  f=0.0203  <S**2>=0.000
       3 -> 15        -0.40041
       4 -> 16         0.58025

 Excited State  38:      Singlet-A1    44.6978 eV   27.74 nm  f=1.1200  <S**2>=0.000
       2 -> 13        -0.29745
       3 -> 17        -0.12509
       4 -> 14        -0.37561
       5 -> 16         0.47519

 Excited State  39:      Singlet-B2    44.8399 eV   27.65 nm  f=0.3832  <S**2>=0.000
       2 -> 12        -0.10342
       3 -> 14         0.66514
       4 -> 17        -0.13806
       5 -> 15         0.14438

 Excited State  40:      Singlet-B1    46.2875 eV   26.79 nm  f=0.7192  <S**2>=0.000
       3 -> 15         0.54546
       4 -> 16         0.35186
       5 -> 18        -0.26520

 Excited State  41:      Singlet-A2    47.2931 eV   26.22 nm  f=0.0000  <S**2>=0.000
       3 -> 16         0.70035

 Excited State  42:      Singlet-A2    47.6400 eV   26.03 nm  f=0.0000  <S**2>=0.000
       5 -> 17         0.70019

 Excited State  43:      Singlet-B2    50.9232 eV   24.35 nm  f=0.1468  <S**2>=0.000
       3 -> 14         0.10013
       3 -> 18         0.12447
       4 -> 17         0.67924

 Excited State  44:      Singlet-A1    52.7043 eV   23.52 nm  f=0.0253  <S**2>=0.000
       3 -> 17         0.13849
       4 -> 18         0.69161

 Excited State  45:      Singlet-B1    53.1691 eV   23.32 nm  f=0.7133  <S**2>=0.000
       3 -> 15         0.18416
       4 -> 16         0.17252
       5 -> 18         0.64639

 Excited State  46:      Singlet-A2    53.8099 eV   23.04 nm  f=0.0000  <S**2>=0.000
       5 -> 19         0.70683

 Excited State  47:      Singlet-A1    55.2992 eV   22.42 nm  f=0.2474  <S**2>=0.000
       2 -> 14        -0.11535
       3 -> 17         0.66550
       4 -> 18        -0.12422
       5 -> 16         0.10004

 Excited State  48:      Singlet-B2    56.0051 eV   22.14 nm  f=0.0073  <S**2>=0.000
       4 -> 19         0.69839

 Excited State  49:      Singlet-B2    57.6363 eV   21.51 nm  f=0.1235  <S**2>=0.000
       3 -> 18         0.68062
       4 -> 17        -0.10158

 Excited State  50:      Singlet-A1    57.9705 eV   21.39 nm  f=0.1198  <S**2>=0.000
       2 -> 14         0.69529

 Excited State  51:      Singlet-A2    58.2545 eV   21.28 nm  f=0.0000  <S**2>=0.000
       2 -> 15         0.70637

 Excited State  52:      Singlet-A1    60.0338 eV   20.65 nm  f=0.0010  <S**2>=0.000
       3 -> 19         0.69405
       4 -> 20         0.11336

 Excited State  53:      Singlet-B1    60.4239 eV   20.52 nm  f=0.2515  <S**2>=0.000
       4 -> 21        -0.11527
       5 -> 20         0.69101

 Excited State  54:      Singlet-B1    61.2810 eV   20.23 nm  f=0.0873  <S**2>=0.000
       2 -> 16         0.70413

 Excited State  55:      Singlet-A1    61.8658 eV   20.04 nm  f=0.0158  <S**2>=0.000
       4 -> 20         0.51783
       5 -> 21         0.47247

 Excited State  56:      Singlet-A1    63.4993 eV   19.53 nm  f=0.1228  <S**2>=0.000
       4 -> 20        -0.46033
       5 -> 21         0.50753

 Excited State  57:      Singlet-B2    63.9119 eV   19.40 nm  f=0.0980  <S**2>=0.000
       3 -> 20         0.18334
       5 -> 22         0.66888

 Excited State  58:      Singlet-B1    64.4616 eV   19.23 nm  f=0.1827  <S**2>=0.000
       4 -> 21         0.69141
       5 -> 20         0.10471

 Excited State  59:      Singlet-A2    65.5168 eV   18.92 nm  f=0.0000  <S**2>=0.000
       4 -> 22         0.70378

 Excited State  60:      Singlet-B2    66.1500 eV   18.74 nm  f=0.0311  <S**2>=0.000
       3 -> 20         0.68053
       5 -> 22        -0.17902

 Excited State  61:      Singlet-A2    67.7341 eV   18.30 nm  f=0.0000  <S**2>=0.000
       3 -> 21         0.63519
       5 -> 23         0.30671

 Excited State  62:      Singlet-B2    68.0017 eV   18.23 nm  f=0.0001  <S**2>=0.000
       2 -> 17         0.70432

 Excited State  63:      Singlet-A2    68.3288 eV   18.15 nm  f=0.0000  <S**2>=0.000
       3 -> 21        -0.30898
       5 -> 23         0.63188

 Excited State  64:      Singlet-B1    69.6239 eV   17.81 nm  f=0.0565  <S**2>=0.000
       3 -> 22         0.70054

 Excited State  65:      Singlet-B2    70.7163 eV   17.53 nm  f=0.1217  <S**2>=0.000
       4 -> 23         0.69513

 Excited State  66:      Singlet-A1    70.7274 eV   17.53 nm  f=0.0003  <S**2>=0.000
       2 -> 18         0.70258

 Excited State  67:      Singlet-B1    70.7962 eV   17.51 nm  f=0.0038  <S**2>=0.000
       5 -> 24         0.70510

 Excited State  68:      Singlet-A1    72.8812 eV   17.01 nm  f=0.0142  <S**2>=0.000
       3 -> 23        -0.41723
       4 -> 24         0.56009

 Excited State  69:      Singlet-B2    73.0133 eV   16.98 nm  f=0.0152  <S**2>=0.000
       2 -> 19         0.70197

 Excited State  70:      Singlet-A1    74.9173 eV   16.55 nm  f=0.1194  <S**2>=0.000
       3 -> 23         0.55268
       4 -> 24         0.38178
       5 -> 27        -0.19735

 Excited State  71:      Singlet-A2    75.8506 eV   16.35 nm  f=0.0000  <S**2>=0.000
       5 -> 25         0.70437

 Excited State  72:      Singlet-B1    76.7337 eV   16.16 nm  f=0.0008  <S**2>=0.000
       5 -> 26         0.70165

 Excited State  73:      Singlet-B2    77.2007 eV   16.06 nm  f=0.0181  <S**2>=0.000
       3 -> 24         0.68310
       4 -> 25        -0.12994

 Excited State  74:      Singlet-A1    77.6456 eV   15.97 nm  f=0.0001  <S**2>=0.000
       3 -> 25         0.15354
       4 -> 24         0.15061
       4 -> 26        -0.40384
       5 -> 27         0.52630

 Excited State  75:      Singlet-B2    77.8561 eV   15.92 nm  f=0.0483  <S**2>=0.000
       3 -> 24         0.13512
       4 -> 25         0.69150

 Excited State  76:      Singlet-B1    78.5387 eV   15.79 nm  f=0.0416  <S**2>=0.000
       4 -> 27         0.70098

 Excited State  77:      Singlet-A1    79.4965 eV   15.60 nm  f=0.0248  <S**2>=0.000
       2 -> 20         0.67725
       4 -> 26        -0.13339
       5 -> 27        -0.12735

 Excited State  78:      Singlet-A1    79.9444 eV   15.51 nm  f=0.0000  <S**2>=0.000
       2 -> 20         0.15597
       3 -> 25         0.36618
       4 -> 26         0.51540
       5 -> 27         0.24339

 Excited State  79:      Singlet-B1    81.1316 eV   15.28 nm  f=0.0150  <S**2>=0.000
       2 -> 21        -0.20195
       5 -> 28         0.67540

 Excited State  80:      Singlet-B1    81.4342 eV   15.23 nm  f=0.0086  <S**2>=0.000
       2 -> 21         0.67409
       5 -> 28         0.20478

 Excited State  81:      Singlet-A2    82.2360 eV   15.08 nm  f=0.0000  <S**2>=0.000
       2 -> 22         0.44391
       3 -> 27         0.54934

 Excited State  82:      Singlet-B2    82.6734 eV   15.00 nm  f=0.0037  <S**2>=0.000
       3 -> 26         0.69859

 Excited State  83:      Singlet-A1    82.9063 eV   14.95 nm  f=0.0048  <S**2>=0.000
       3 -> 25        -0.40675
       4 -> 26         0.10424
       4 -> 28         0.54960

 Excited State  84:      Singlet-A2    83.1051 eV   14.92 nm  f=0.0000  <S**2>=0.000
       2 -> 22         0.54925
       3 -> 27        -0.44461

 Excited State  85:      Singlet-B2    87.4789 eV   14.17 nm  f=0.0177  <S**2>=0.000
       2 -> 23        -0.12369
       3 -> 28         0.69346

 Excited State  86:      Singlet-B2    87.7143 eV   14.14 nm  f=0.0062  <S**2>=0.000
       2 -> 23         0.69168
       3 -> 28         0.12814

 Excited State  87:      Singlet-A1    87.7334 eV   14.13 nm  f=0.0212  <S**2>=0.000
       2 -> 26        -0.12393
       2 -> 28        -0.11016
       3 -> 25         0.40593
       4 -> 26        -0.19315
       4 -> 28         0.41578
       5 -> 27        -0.27568

 Excited State  88:      Singlet-A1    90.4406 eV   13.71 nm  f=0.0175  <S**2>=0.000
       2 -> 24         0.70568

 Excited State  89:      Singlet-B2    95.5503 eV   12.98 nm  f=0.0783  <S**2>=0.000
       2 -> 25         0.70577

 Excited State  90:      Singlet-B1    95.9238 eV   12.93 nm  f=0.1235  <S**2>=0.000
       2 -> 27         0.70663

 Excited State  91:      Singlet-A1    96.6982 eV   12.82 nm  f=0.0657  <S**2>=0.000
       2 -> 26         0.67949
       2 -> 28        -0.16429

 Excited State  92:      Singlet-A1   102.6494 eV   12.08 nm  f=0.0066  <S**2>=0.000
       2 -> 26         0.14139
       2 -> 28         0.67211

 Excited State  93:      Singlet-B1   104.6211 eV   11.85 nm  f=0.0002  <S**2>=0.000
       5 -> 29         0.70664

 Excited State  94:      Singlet-A1   106.7941 eV   11.61 nm  f=0.0002  <S**2>=0.000
       4 -> 29         0.70112

 Excited State  95:      Singlet-B2   110.4260 eV   11.23 nm  f=0.0037  <S**2>=0.000
       3 -> 29         0.70603

 Excited State  96:      Singlet-A2   112.9659 eV   10.98 nm  f=0.0000  <S**2>=0.000
       5 -> 30         0.70671

 Excited State  97:      Singlet-B2   114.8110 eV   10.80 nm  f=0.0000  <S**2>=0.000
       4 -> 30         0.70647

 Excited State  98:      Singlet-A1   118.9908 eV   10.42 nm  f=0.0018  <S**2>=0.000
       3 -> 30         0.70501

 Excited State  99:      Singlet-A1   124.1689 eV    9.99 nm  f=0.0114  <S**2>=0.000
       2 -> 29         0.70574

 Excited State 100:      Singlet-B2   131.9919 eV    9.39 nm  f=0.0167  <S**2>=0.000
       2 -> 30         0.70658

 Excited State 101:      Singlet-A1   143.6091 eV    8.63 nm  f=0.0013  <S**2>=0.000
       4 -> 32        -0.13966
       5 -> 31         0.69257

 Excited State 102:      Singlet-B1   145.1258 eV    8.54 nm  f=0.0003  <S**2>=0.000
       4 -> 31         0.56233
       5 -> 32         0.42800

 Excited State 103:      Singlet-B1   147.2924 eV    8.42 nm  f=0.0010  <S**2>=0.000
       4 -> 31        -0.42528
       5 -> 32         0.55840

 Excited State 104:      Singlet-A1   148.7463 eV    8.34 nm  f=0.0002  <S**2>=0.000
       4 -> 32         0.66901
       5 -> 31         0.13455
       5 -> 33         0.18062

 Excited State 105:      Singlet-A2   149.8261 eV    8.28 nm  f=0.0000  <S**2>=0.000
       3 -> 31         0.69651

 Excited State 106:      Singlet-A1   151.9238 eV    8.16 nm  f=0.0007  <S**2>=0.000
       4 -> 32        -0.17825
       5 -> 33         0.68091

 Excited State 107:      Singlet-B2   152.1791 eV    8.15 nm  f=0.0014  <S**2>=0.000
       5 -> 34         0.69701

 Excited State 108:      Singlet-B2   152.5089 eV    8.13 nm  f=0.0000  <S**2>=0.000
       3 -> 32         0.69879

 Excited State 109:      Singlet-B1   153.4138 eV    8.08 nm  f=0.0003  <S**2>=0.000
       4 -> 33         0.70407

 Excited State 110:      Singlet-A2   153.7505 eV    8.06 nm  f=0.0000  <S**2>=0.000
       4 -> 34        -0.23417
       5 -> 35         0.65972

 Excited State 111:      Singlet-A2   154.0104 eV    8.05 nm  f=0.0000  <S**2>=0.000
       3 -> 31        -0.10927
       4 -> 34         0.65917
       5 -> 35         0.21643

 Excited State 112:      Singlet-B2   155.9364 eV    7.95 nm  f=0.0003  <S**2>=0.000
       4 -> 35         0.70275

 Excited State 113:      Singlet-A2   157.8428 eV    7.85 nm  f=0.0000  <S**2>=0.000
       3 -> 33         0.69620
       5 -> 35        -0.10626

 Excited State 114:      Singlet-B1   158.5201 eV    7.82 nm  f=0.0000  <S**2>=0.000
       3 -> 34         0.70257

 Excited State 115:      Singlet-A1   160.5213 eV    7.72 nm  f=0.0009  <S**2>=0.000
       3 -> 35         0.70359

 Excited State 116:      Singlet-B1   163.0250 eV    7.61 nm  f=0.0000  <S**2>=0.000
       2 -> 31         0.70614

 Excited State 117:      Singlet-A1   165.8168 eV    7.48 nm  f=0.0004  <S**2>=0.000
       2 -> 32         0.70599

 Excited State 118:      Singlet-A2   169.2412 eV    7.33 nm  f=0.0000  <S**2>=0.000
       5 -> 36         0.70129

 Excited State 119:      Singlet-B1   170.7722 eV    7.26 nm  f=0.0007  <S**2>=0.000
       2 -> 33         0.70581

 Excited State 120:      Singlet-A2   171.4830 eV    7.23 nm  f=0.0000  <S**2>=0.000
       2 -> 34         0.70162

 Excited State 121:      Singlet-B2   171.7592 eV    7.22 nm  f=0.0089  <S**2>=0.000
       4 -> 36         0.69684
       5 -> 39         0.10041

 Excited State 122:      Singlet-B2   173.2883 eV    7.15 nm  f=0.0009  <S**2>=0.000
       2 -> 35         0.70652

 Excited State 123:      Singlet-B1   174.9494 eV    7.09 nm  f=0.0116  <S**2>=0.000
       4 -> 38         0.21763
       5 -> 37         0.66401

 Excited State 124:      Singlet-A1   175.2344 eV    7.08 nm  f=0.0036  <S**2>=0.000
       3 -> 36         0.51709
       4 -> 37        -0.33053
       5 -> 38         0.35028

 Excited State 125:      Singlet-A1   176.2206 eV    7.04 nm  f=0.0023  <S**2>=0.000
       3 -> 36         0.34170
       4 -> 37         0.61406

 Excited State 126:      Singlet-A1   177.1847 eV    7.00 nm  f=0.0073  <S**2>=0.000
       3 -> 36        -0.30301
       4 -> 37         0.11018
       4 -> 40        -0.28524
       5 -> 38         0.55993

 Excited State 127:      Singlet-B1   178.2105 eV    6.96 nm  f=0.0001  <S**2>=0.000
       4 -> 38         0.44156
       5 -> 40         0.53978

 Excited State 128:      Singlet-B2   178.3514 eV    6.95 nm  f=0.0011  <S**2>=0.000
       3 -> 37        -0.32977
       5 -> 39         0.61857

 Excited State 129:      Singlet-A2   179.9753 eV    6.89 nm  f=0.0000  <S**2>=0.000
       4 -> 39         0.70421

 Excited State 130:      Singlet-B1   180.3828 eV    6.87 nm  f=0.0090  <S**2>=0.000
       3 -> 39        -0.24756
       4 -> 38         0.46718
       5 -> 37        -0.15651
       5 -> 40        -0.44111

 Excited State 131:      Singlet-B2   181.7216 eV    6.82 nm  f=0.0245  <S**2>=0.000
       3 -> 37         0.61079
       3 -> 40         0.16011
       5 -> 39         0.30174

 Excited State 132:      Singlet-A2   182.2373 eV    6.80 nm  f=0.0000  <S**2>=0.000
       3 -> 38         0.70484

 Excited State 133:      Singlet-A1   183.8132 eV    6.75 nm  f=0.0310  <S**2>=0.000
       3 -> 36        -0.14903
       4 -> 40         0.64460
       5 -> 38         0.23764

 Excited State 134:      Singlet-B1   185.7926 eV    6.67 nm  f=0.0240  <S**2>=0.000
       3 -> 39         0.64782
       4 -> 38         0.19015
       5 -> 37        -0.14566
       5 -> 40        -0.10180
       5 -> 41        -0.10813

 Excited State 135:      Singlet-B2   185.8734 eV    6.67 nm  f=0.0074  <S**2>=0.000
       3 -> 37        -0.10814
       3 -> 40         0.67812
       5 -> 39        -0.10176

 Excited State 136:      Singlet-B2   189.2849 eV    6.55 nm  f=0.0065  <S**2>=0.000
       2 -> 36         0.69846

 Excited State 137:      Singlet-B1   193.5131 eV    6.41 nm  f=0.0173  <S**2>=0.000
       5 -> 41         0.69810

 Excited State 138:      Singlet-A1   193.9346 eV    6.39 nm  f=0.0004  <S**2>=0.000
       2 -> 37         0.68897
       4 -> 41         0.15723

 Excited State 139:      Singlet-A2   194.5811 eV    6.37 nm  f=0.0000  <S**2>=0.000
       5 -> 42         0.70605

 Excited State 140:      Singlet-A1   195.3769 eV    6.35 nm  f=0.0000  <S**2>=0.000
       2 -> 37        -0.15732
       4 -> 41         0.68690

 Excited State 141:      Singlet-B1   195.8578 eV    6.33 nm  f=0.0009  <S**2>=0.000
       2 -> 38         0.70639

 Excited State 142:      Singlet-B2   197.3897 eV    6.28 nm  f=0.0210  <S**2>=0.000
       3 -> 41         0.23061
       4 -> 42         0.66415

 Excited State 143:      Singlet-A2   197.5543 eV    6.28 nm  f=0.0000  <S**2>=0.000
       2 -> 39         0.70652

 Excited State 144:      Singlet-A1   198.8002 eV    6.24 nm  f=0.0003  <S**2>=0.000
       2 -> 40         0.70483

 Excited State 145:      Singlet-B2   199.8415 eV    6.20 nm  f=0.0361  <S**2>=0.000
       3 -> 41         0.66706
       4 -> 42        -0.22499

 Excited State 146:      Singlet-A1   201.5501 eV    6.15 nm  f=0.0306  <S**2>=0.000
       3 -> 42         0.70262

 Excited State 147:      Singlet-A1   212.6041 eV    5.83 nm  f=0.0009  <S**2>=0.000
       2 -> 41         0.70688

 Excited State 148:      Singlet-B2   214.1366 eV    5.79 nm  f=0.0003  <S**2>=0.000
       2 -> 42         0.70686

 Excited State 149:      Singlet-B1   1180.1736 eV    1.05 nm  f=0.0229  <S**2>=0.000
       5 -> 43         0.70711

 Excited State 150:      Singlet-A1   1182.7994 eV    1.05 nm  f=0.0067  <S**2>=0.000
       4 -> 43         0.70687

 Excited State 151:      Singlet-B2   1186.9758 eV    1.04 nm  f=0.0024  <S**2>=0.000
       3 -> 43         0.70711

 Excited State 152:      Singlet-A1   1202.0052 eV    1.03 nm  f=0.0000  <S**2>=0.000
       2 -> 43         0.70687

 The electronic state is 1-A1.
 Alpha  occ. eigenvalues --  -19.24625  -1.11298  -0.62177  -0.47501  -0.40053
 Alpha virt. eigenvalues --    0.10412   0.17646   0.44874   0.49616   0.52026
 Alpha virt. eigenvalues --    0.52836   0.66011   0.67811   1.25457   1.27229
 Alpha virt. eigenvalues --    1.38430   1.61308   1.72451   1.83651   2.06835

 Mulliken charges:
               1
     1  O   -0.656361
     2  H    0.328180
     3  H    0.328180
 Sum of Mulliken charges =   0.00000

 Dipole moment (field-independent basis, Debye):
    X=             -0.0000    Y=             -0.0000    Z=             -2.0860  Tot=              2.0860
 Quadrupole moment (field-independent basis, Debye-Ang):
   XX=             -7.5088   YY=             -4.2503   ZZ=             -6.2569
   XY=              0.0000   XZ=              0.0000   YZ=             -0.0000

 1\1\GINC-HEL14\SP\RwB97XD TD-FC\def2TZVP\H2O1\PRAKRITI\14-Aug-2021\0\\
 #P TD(Nstates=10000) wB97XD/def2TZVP SCF(maxcycles=100) Int(Grid=ultra
 fine)\\xGDB7_00001_tier4.com\\0,1\O,0,0.,0.,0.116015\H,0,0.,0.761895,-
 0.464058\H,0,0.,-0.761895,-0.464058\\Version=EM64L-G16RevC.01\State=1-
 A1\HF=-76.4376927\RMSD=4.182e-09\PG=C02V [C2(O1),SGV(H2)]\\@
 The archive entry for this job was punched.

 Normal termination of Gaussian 16 at Sat Aug 14 06:17:21 2021.
