 Gaussian 16, Revision C.01,
 Gaussian 16:  EM64L-G16RevC.01  3-Jul-2019

 ----------------------------------------------------------------------
 #P TD(Nstates=10000) wB97XD/def2TZVP SCF(maxcycles=100) Int(Grid=ultra
 fine)
 ----------------------------------------------------------------------

 ---------------------
 xGDB7_00001_tier4.com
 ---------------------
 Symbolic Z-matrix:
 Charge =  0 Multiplicity = 1

                         Standard orientation:
 ---------------------------------------------------------------------
 Center     Atomic      Atomic             Coordinates (Angstroms)
 Number     Number       Type             X           Y           Z
 ---------------------------------------------------------------------
      1          7           0        1.111035   -0.177046   -0.052467
      2          6           0       -0.122009    0.419593    0.001774
      3          7           0       -1.267607   -0.121443    0.008098
      4          1           0        1.920558    0.367802    0.180104
      5          1           0        1.180700   -1.165617    0.115308
      6          1           0       -0.065701    1.508813    0.004046
      7          1           0       -1.207497   -1.139126    0.000481
 ---------------------------------------------------------------------

 SCF Done:  E(RwB97XD) =  -150.014682534     A.U. after   14 cycles

 Excitation energies and oscillator strengths:

 Excited State   1:      Singlet-A      6.5147 eV  190.32 nm  f=0.0093  <S**2>=0.000
      11 -> 13        -0.47077
      11 -> 14         0.48766
      12 -> 13         0.17311
 This state for optimization and/or second-order correction.
 Total Energy, E(TD-HF/TD-DFT) =  -149.775272448
 Copying the excited state density for this state as the 1-particle RhoCI density.

 Excited State   2:      Singlet-A      6.9252 eV  179.03 nm  f=0.0067  <S**2>=0.000
      12 -> 13         0.57894
      12 -> 14         0.36313

 Excited State   3:      Singlet-A      7.5072 eV  165.15 nm  f=0.1663  <S**2>=0.000
      11 -> 13         0.10297
      11 -> 14         0.30024
      12 -> 13        -0.30749
      12 -> 14         0.53266

 Excited State   4:      Singlet-A      7.7064 eV  160.88 nm  f=0.0092  <S**2>=0.000
      12 -> 13        -0.10532
      12 -> 15         0.68788

 Excited State   5:      Singlet-A      8.0328 eV  154.35 nm  f=0.1504  <S**2>=0.000
      11 -> 13         0.38405
      11 -> 14         0.28835
      11 -> 15         0.38991
      11 -> 16         0.23721
      12 -> 13         0.10316
      12 -> 14        -0.19591

 Excited State   6:      Singlet-A      8.6984 eV  142.54 nm  f=0.0307  <S**2>=0.000
      11 -> 15         0.18922
      12 -> 16         0.65297

 Excited State   7:      Singlet-A      8.7838 eV  141.15 nm  f=0.2097  <S**2>=0.000
      11 -> 13        -0.26857
      11 -> 14        -0.24164
      11 -> 15         0.51776
      11 -> 17         0.14628
      12 -> 14         0.13683
      12 -> 16        -0.20373

 Excited State   8:      Singlet-A      9.3834 eV  132.13 nm  f=0.0114  <S**2>=0.000
      11 -> 13        -0.17079
      11 -> 14        -0.12209
      11 -> 15        -0.10849
      11 -> 16         0.65343

 Excited State   9:      Singlet-A      9.5834 eV  129.37 nm  f=0.0059  <S**2>=0.000
      10 -> 15        -0.15021
      12 -> 17         0.67342

 Excited State  10:      Singlet-A     10.3550 eV  119.73 nm  f=0.0074  <S**2>=0.000
       9 -> 13        -0.44543
       9 -> 14         0.45929
      12 -> 18         0.26218

 Excited State  11:      Singlet-A     10.4260 eV  118.92 nm  f=0.0248  <S**2>=0.000
       9 -> 13         0.18918
       9 -> 14        -0.20025
      12 -> 18         0.62826

 Excited State  12:      Singlet-A     10.5667 eV  117.34 nm  f=0.0199  <S**2>=0.000
      10 -> 13         0.24725
      11 -> 15        -0.13294
      11 -> 17         0.62926

 Excited State  13:      Singlet-A     10.6838 eV  116.05 nm  f=0.0293  <S**2>=0.000
      10 -> 13         0.60536
      10 -> 14         0.20589
      11 -> 17        -0.21640
      12 -> 18        -0.10734

 Excited State  14:      Singlet-A     10.8872 eV  113.88 nm  f=0.0814  <S**2>=0.000
      10 -> 13        -0.15960
      10 -> 14         0.62270
      11 -> 17         0.14498
      11 -> 18        -0.13530

 Excited State  15:      Singlet-A     11.2119 eV  110.58 nm  f=0.0356  <S**2>=0.000
      10 -> 14         0.10538
      11 -> 18         0.68187

 Excited State  16:      Singlet-A     11.4474 eV  108.31 nm  f=0.0027  <S**2>=0.000
      10 -> 15         0.60561
      12 -> 17         0.13521
      12 -> 19         0.29438

 Excited State  17:      Singlet-A     11.6763 eV  106.18 nm  f=0.0150  <S**2>=0.000
       9 -> 13         0.11892
      10 -> 15        -0.28895
      10 -> 16        -0.11800
      12 -> 19         0.59578

 Excited State  18:      Singlet-A     11.7754 eV  105.29 nm  f=0.0652  <S**2>=0.000
       9 -> 13         0.46654
       9 -> 14         0.45818
      12 -> 19        -0.12333
      12 -> 20        -0.14408

 Excited State  19:      Singlet-A     12.0191 eV  103.16 nm  f=0.0516  <S**2>=0.000
       9 -> 13         0.11145
       9 -> 15         0.14975
      12 -> 20         0.65074

 Excited State  20:      Singlet-A     12.4048 eV   99.95 nm  f=0.2605  <S**2>=0.000
       9 -> 15         0.62158
      10 -> 16         0.11080
      11 -> 19         0.22098
      12 -> 20        -0.15259

 Excited State  21:      Singlet-A     12.5009 eV   99.18 nm  f=0.0049  <S**2>=0.000
      10 -> 16         0.63108
      11 -> 19        -0.17361
      12 -> 19         0.14947
      12 -> 20         0.11421

 Excited State  22:      Singlet-A     12.5232 eV   99.00 nm  f=0.0018  <S**2>=0.000
       9 -> 15        -0.23035
      10 -> 16         0.15899
      11 -> 19         0.58663
      11 -> 20        -0.23606

 Excited State  23:      Singlet-A     12.7206 eV   97.47 nm  f=0.0067  <S**2>=0.000
      11 -> 19         0.22611
      11 -> 20         0.65549

 Excited State  24:      Singlet-A     13.1605 eV   94.21 nm  f=0.0029  <S**2>=0.000
       7 -> 14         0.11049
       8 -> 13        -0.46574
       8 -> 14         0.47044
      12 -> 21         0.12869

 Excited State  25:      Singlet-A     13.2484 eV   93.58 nm  f=0.0234  <S**2>=0.000
       9 -> 16        -0.16553
      10 -> 17         0.33003
      10 -> 18         0.10310
      12 -> 21         0.56580

 Excited State  26:      Singlet-A     13.3404 eV   92.94 nm  f=0.0956  <S**2>=0.000
       8 -> 13        -0.10823
       9 -> 16         0.50697
      10 -> 17         0.43614

 Excited State  27:      Singlet-A     13.3689 eV   92.74 nm  f=0.0407  <S**2>=0.000
       8 -> 14         0.15485
       9 -> 16        -0.39496
      10 -> 17         0.41666
      12 -> 21        -0.32199

 Excited State  28:      Singlet-A     14.0275 eV   88.39 nm  f=0.1616  <S**2>=0.000
       8 -> 14        -0.10047
      11 -> 21         0.65191
      11 -> 23         0.15800

 Excited State  29:      Singlet-A     14.1473 eV   87.64 nm  f=0.0916  <S**2>=0.000
       7 -> 13         0.10836
       8 -> 15        -0.15169
       9 -> 17         0.62343
      10 -> 20        -0.11983

 Excited State  30:      Singlet-A     14.2347 eV   87.10 nm  f=0.2071  <S**2>=0.000
       7 -> 13         0.13604
       7 -> 14        -0.12101
       9 -> 17        -0.11491
      10 -> 18         0.61387
      12 -> 21        -0.13841
      12 -> 23        -0.15241

 Excited State  31:      Singlet-A     14.4294 eV   85.92 nm  f=0.0559  <S**2>=0.000
       7 -> 13         0.43902
       7 -> 14        -0.35028
       8 -> 13        -0.22370
       9 -> 17        -0.10922
      10 -> 18        -0.11002
      12 -> 22         0.27396

 Excited State  32:      Singlet-A     14.5163 eV   85.41 nm  f=0.1247  <S**2>=0.000
       7 -> 14        -0.19409
       8 -> 13         0.38788
       8 -> 14         0.43177
       9 -> 16         0.15664
       9 -> 17         0.12477
      11 -> 21         0.11206
      12 -> 22         0.14113

 Excited State  33:      Singlet-A     14.5781 eV   85.05 nm  f=0.0452  <S**2>=0.000
       7 -> 13        -0.26622
       7 -> 14         0.13003
       8 -> 14        -0.10172
      10 -> 18         0.15650
      10 -> 19         0.10486
      12 -> 22         0.58236

 Excited State  34:      Singlet-A     14.8324 eV   83.59 nm  f=0.0628  <S**2>=0.000
       7 -> 13         0.26723
       7 -> 14         0.37894
      10 -> 19         0.26078
      10 -> 20         0.13092
      12 -> 23         0.38226

 Excited State  35:      Singlet-A     14.8729 eV   83.36 nm  f=0.0643  <S**2>=0.000
       7 -> 13         0.29326
       7 -> 14         0.34723
      10 -> 19        -0.32870
      12 -> 22         0.16998
      12 -> 23        -0.32650

 Excited State  36:      Singlet-A     15.0069 eV   82.62 nm  f=0.0251  <S**2>=0.000
       8 -> 15        -0.25834
       9 -> 18         0.62091

 Excited State  37:      Singlet-A     15.2892 eV   81.09 nm  f=0.0066  <S**2>=0.000
       7 -> 15         0.12132
       8 -> 15         0.56411
       9 -> 18         0.28243
      10 -> 20        -0.15434

 Excited State  38:      Singlet-A     15.4320 eV   80.34 nm  f=0.0379  <S**2>=0.000
       7 -> 15         0.21165
       8 -> 15        -0.17946
       8 -> 16         0.10086
       9 -> 17        -0.14448
      10 -> 18        -0.10508
      10 -> 19         0.42172
      10 -> 20        -0.19730
      11 -> 23        -0.10043
      12 -> 23        -0.29446
      12 -> 24        -0.11036

 Excited State  39:      Singlet-A     15.5892 eV   79.53 nm  f=0.0245  <S**2>=0.000
       7 -> 15        -0.27270
       9 -> 17         0.11276
      10 -> 19         0.30273
      10 -> 20         0.37859
      12 -> 23        -0.28065
      12 -> 24         0.14571

 Excited State  40:      Singlet-A     15.7266 eV   78.84 nm  f=0.2425  <S**2>=0.000
       7 -> 15        -0.23465
       8 -> 16         0.23237
       9 -> 19         0.10354
      10 -> 20        -0.11727
      11 -> 22         0.56169

 Excited State  41:      Singlet-A     15.9084 eV   77.94 nm  f=0.0233  <S**2>=0.000
       7 -> 15         0.39614
       9 -> 19         0.32443
      10 -> 20         0.25949
      11 -> 22         0.15457
      11 -> 23         0.23134
      12 -> 24        -0.18501

 Excited State  42:      Singlet-A     16.0342 eV   77.32 nm  f=0.0699  <S**2>=0.000
       8 -> 16         0.38589
       9 -> 19        -0.25264
      11 -> 21        -0.12664
      11 -> 22        -0.16213
      11 -> 23         0.44746

 Excited State  43:      Singlet-A     16.1654 eV   76.70 nm  f=0.1219  <S**2>=0.000
       9 -> 19         0.44798
       9 -> 20        -0.11260
      10 -> 20        -0.29527
      11 -> 22        -0.20499
      11 -> 23         0.20023
      12 -> 24         0.28494

 Excited State  44:      Singlet-A     16.2829 eV   76.14 nm  f=0.0905  <S**2>=0.000
       6 -> 13        -0.12609
       7 -> 15         0.11720
       8 -> 16        -0.31344
       9 -> 19        -0.23894
       9 -> 20         0.27121
      10 -> 20        -0.16387
      11 -> 22         0.14209
      11 -> 23         0.20436
      12 -> 24         0.31465
      12 -> 27        -0.10606

 Excited State  45:      Singlet-A     16.4168 eV   75.52 nm  f=0.0227  <S**2>=0.000
       7 -> 15        -0.11699
       9 -> 19         0.13671
       9 -> 20         0.56940
      12 -> 24        -0.16181
      12 -> 25         0.23668

 Excited State  46:      Singlet-A     16.4950 eV   75.16 nm  f=0.0631  <S**2>=0.000
       6 -> 13         0.14307
       6 -> 14        -0.20398
       8 -> 16        -0.19822
       9 -> 20        -0.22052
      10 -> 21         0.14713
      12 -> 24        -0.13294
      12 -> 25         0.46712
      12 -> 26         0.17828

 Excited State  47:      Singlet-A     16.6877 eV   74.30 nm  f=0.0859  <S**2>=0.000
       6 -> 15         0.12371
       7 -> 15        -0.22477
       7 -> 16        -0.10284
       8 -> 16        -0.27579
       8 -> 17         0.35837
      11 -> 23         0.14398
      12 -> 24        -0.27064
      12 -> 25        -0.25909

 Excited State  48:      Singlet-A     16.9678 eV   73.07 nm  f=0.0106  <S**2>=0.000
       6 -> 13        -0.17499
       6 -> 14         0.16575
       8 -> 17        -0.11054
       9 -> 20        -0.12503
      10 -> 21         0.17594
      11 -> 24         0.54156
      11 -> 27        -0.19944

 Excited State  49:      Singlet-A     17.0639 eV   72.66 nm  f=0.1048  <S**2>=0.000
       6 -> 13        -0.21858
       6 -> 14         0.14012
       7 -> 16        -0.14693
       8 -> 17         0.10700
      10 -> 21         0.49764
      11 -> 24        -0.19809
      11 -> 26        -0.12485
      11 -> 27         0.14797
      12 -> 23         0.12235
      12 -> 26         0.11274

 Excited State  50:      Singlet-A     17.1317 eV   72.37 nm  f=0.0294  <S**2>=0.000
       6 -> 13         0.24284
       6 -> 14        -0.10718
       7 -> 16         0.37864
      10 -> 21         0.14176
      12 -> 25        -0.25643
      12 -> 26         0.37063

 Excited State  51:      Singlet-A     17.2093 eV   72.04 nm  f=0.0482  <S**2>=0.000
       6 -> 13        -0.10002
       6 -> 14         0.24036
       7 -> 16         0.36208
       7 -> 17        -0.17349
       8 -> 16        -0.10479
       8 -> 17        -0.13136
      11 -> 23         0.14267
      11 -> 24        -0.13673
      11 -> 25         0.14554
      11 -> 27         0.12507
      12 -> 24        -0.14751
      12 -> 25         0.11697
      12 -> 26        -0.27882

 Excited State  52:      Singlet-A     17.3369 eV   71.51 nm  f=0.0454  <S**2>=0.000
       6 -> 13        -0.23180
       7 -> 16         0.26737
       8 -> 17         0.19793
      10 -> 21        -0.24583
      11 -> 25        -0.22614
      11 -> 26        -0.22731
      12 -> 25         0.17491
      12 -> 26         0.18523
      12 -> 27        -0.20796

 Excited State  53:      Singlet-A     17.4018 eV   71.25 nm  f=0.0524  <S**2>=0.000
       6 -> 13        -0.19576
       6 -> 14         0.15752
       7 -> 16        -0.10285
      10 -> 21        -0.20911
      11 -> 25         0.34437
      11 -> 26         0.17449
      12 -> 26         0.35780
      12 -> 27         0.12515
      12 -> 28         0.16899

 Excited State  54:      Singlet-A     17.4144 eV   71.20 nm  f=0.1038  <S**2>=0.000
       6 -> 14        -0.11679
       7 -> 15         0.14371
       7 -> 16         0.26107
       7 -> 17         0.25668
       8 -> 17         0.36827
      10 -> 21         0.12887
      11 -> 25         0.20261
      11 -> 26         0.18660
      12 -> 24         0.12325
      12 -> 26        -0.12754
      12 -> 27         0.10817

 Excited State  55:      Singlet-A     17.6916 eV   70.08 nm  f=0.0048  <S**2>=0.000
       6 -> 13         0.28654
       6 -> 14         0.26426
       7 -> 17         0.15015
       8 -> 18        -0.26900
      11 -> 24         0.13938
      11 -> 25         0.28732
      11 -> 26        -0.20516
      12 -> 27        -0.23706
      12 -> 28        -0.10812

 Excited State  56:      Singlet-A     17.7523 eV   69.84 nm  f=0.0364  <S**2>=0.000
       6 -> 13         0.17040
       6 -> 14         0.28439
       6 -> 15         0.10334
       7 -> 17         0.41068
       8 -> 18         0.28234
      11 -> 25        -0.13615
      11 -> 28         0.10324
      12 -> 27         0.19116
      12 -> 28         0.10195

 Excited State  57:      Singlet-A     17.8336 eV   69.52 nm  f=0.0007  <S**2>=0.000
       6 -> 14         0.21188
       6 -> 15        -0.10900
       8 -> 18        -0.28704
      11 -> 24        -0.15968
      11 -> 25        -0.28176
      11 -> 26         0.29860
      11 -> 27        -0.22933
      11 -> 28        -0.11297
      12 -> 27        -0.15586
      12 -> 28         0.18464

 Excited State  58:      Singlet-A     17.9417 eV   69.10 nm  f=0.0819  <S**2>=0.000
       6 -> 13        -0.23145
       6 -> 14        -0.20266
       7 -> 17         0.32942
       7 -> 18        -0.13972
       8 -> 17        -0.28724
       8 -> 18        -0.27609
       9 -> 21         0.16092
      12 -> 24        -0.14225

 Excited State  59:      Singlet-A     18.0551 eV   68.67 nm  f=0.0292  <S**2>=0.000
       8 -> 18         0.17029
       9 -> 21         0.12674
      10 -> 22        -0.22346
      11 -> 24        -0.10263
      11 -> 25         0.16563
      11 -> 26        -0.23816
      11 -> 27        -0.30600
      12 -> 27        -0.21449
      12 -> 28         0.33413

 Excited State  60:      Singlet-A     18.0923 eV   68.53 nm  f=0.0139  <S**2>=0.000
       6 -> 14         0.11666
       7 -> 17        -0.10056
       9 -> 21         0.34633
      10 -> 22         0.29125
      11 -> 24        -0.13417
      11 -> 27        -0.34423
      12 -> 27         0.10651
      12 -> 28        -0.23794

 Excited State  61:      Singlet-A     18.2105 eV   68.08 nm  f=0.0054  <S**2>=0.000
       8 -> 18         0.12604
       9 -> 21        -0.35809
      10 -> 22         0.46792
      11 -> 25         0.10451
      11 -> 28        -0.16610
      12 -> 27        -0.12013
      12 -> 28         0.10755

 Excited State  62:      Singlet-A     18.2524 eV   67.93 nm  f=0.0265  <S**2>=0.000
       9 -> 21         0.34582
      10 -> 22         0.27580
      11 -> 24         0.12650
      11 -> 27         0.29046
      12 -> 28         0.31140
      12 -> 29        -0.12156
      12 -> 30         0.10597

 Excited State  63:      Singlet-A     18.3386 eV   67.61 nm  f=0.0108  <S**2>=0.000
       8 -> 18        -0.15546
      10 -> 22         0.13753
      11 -> 28         0.56010
      12 -> 28         0.20221

 Excited State  64:      Singlet-A     18.4721 eV   67.12 nm  f=0.0092  <S**2>=0.000
       6 -> 15         0.60632
       7 -> 17        -0.11308
       7 -> 18         0.10865
       8 -> 18        -0.17920
      12 -> 27         0.10348

 Excited State  65:      Singlet-A     18.6917 eV   66.33 nm  f=0.0786  <S**2>=0.000
       6 -> 15         0.10295
       9 -> 22        -0.10019
      10 -> 23        -0.11776
      11 -> 26         0.13568
      11 -> 28         0.13437
      12 -> 27        -0.13818
      12 -> 29         0.56065
      12 -> 30         0.14488

 Excited State  66:      Singlet-A     18.7564 eV   66.10 nm  f=0.0420  <S**2>=0.000
       6 -> 15        -0.14747
       6 -> 16         0.12584
       7 -> 18         0.13594
       8 -> 18        -0.16724
       8 -> 19        -0.13344
       9 -> 22         0.18095
      10 -> 23        -0.17065
      11 -> 26        -0.24456
      11 -> 28        -0.15589
      12 -> 27         0.25535
      12 -> 28         0.20492
      12 -> 29         0.26323

 Excited State  67:      Singlet-A     18.8052 eV   65.93 nm  f=0.0818  <S**2>=0.000
      10 -> 23         0.31378
      12 -> 30         0.56485

 Excited State  68:      Singlet-A     18.9507 eV   65.42 nm  f=0.0287  <S**2>=0.000
       7 -> 18         0.55346
       7 -> 19         0.12462
       8 -> 19        -0.13487
      10 -> 23         0.24825
      10 -> 24         0.10385
      12 -> 27        -0.10946

 Excited State  69:      Singlet-A     19.0685 eV   65.02 nm  f=0.0276  <S**2>=0.000
       7 -> 18        -0.18247
       8 -> 19         0.18790
       9 -> 22         0.12658
      10 -> 23         0.47748
      12 -> 29         0.18538
      12 -> 30        -0.28727

 Excited State  70:      Singlet-A     19.1355 eV   64.79 nm  f=0.0558  <S**2>=0.000
       6 -> 16         0.22082
       7 -> 18         0.17594
       8 -> 19         0.51804
       9 -> 23         0.10600
      10 -> 23        -0.10266
      10 -> 24         0.11781
      11 -> 29        -0.11244
      11 -> 30         0.22002

 Excited State  71:      Singlet-A     19.3256 eV   64.16 nm  f=0.0393  <S**2>=0.000
       6 -> 16         0.10850
       8 -> 20         0.55848
       9 -> 23         0.21123
      11 -> 29         0.15997
      11 -> 30        -0.20689

 Excited State  72:      Singlet-A     19.4328 eV   63.80 nm  f=0.1796  <S**2>=0.000
       8 -> 19        -0.11915
       8 -> 20         0.35564
       8 -> 21         0.13307
       9 -> 22        -0.15502
       9 -> 23        -0.16578
       9 -> 25         0.10425
      11 -> 29        -0.30391
      11 -> 30         0.37245

 Excited State  73:      Singlet-A     19.4625 eV   63.70 nm  f=0.0009  <S**2>=0.000
       6 -> 16        -0.21212
       7 -> 19         0.16389
       9 -> 22         0.51665
      10 -> 24        -0.11901
      11 -> 29        -0.17611
      12 -> 31         0.18000

 Excited State  74:      Singlet-A     19.5994 eV   63.26 nm  f=0.0267  <S**2>=0.000
       6 -> 16         0.25795
       7 -> 19        -0.13322
       8 -> 19        -0.17376
       8 -> 20        -0.13518
      10 -> 25         0.13066
      12 -> 31         0.51636

 Excited State  75:      Singlet-A     19.8017 eV   62.61 nm  f=0.0100  <S**2>=0.000
       6 -> 16         0.21788
       6 -> 17         0.11954
       7 -> 19         0.13514
       8 -> 19        -0.10808
       9 -> 22         0.12871
      10 -> 24         0.37549
      11 -> 29        -0.31975
      11 -> 30        -0.20403
      11 -> 31        -0.11711
      11 -> 32        -0.16851
      12 -> 31        -0.13580

 Excited State  76:      Singlet-A     19.8896 eV   62.34 nm  f=0.0426  <S**2>=0.000
       7 -> 18        -0.11646
       7 -> 19         0.38371
       8 -> 21         0.13536
       9 -> 23        -0.18825
      10 -> 24         0.29138
      11 -> 29         0.26346
      11 -> 31         0.10355
      11 -> 32         0.12995
      12 -> 31         0.14701

 Excited State  77:      Singlet-A     19.9485 eV   62.15 nm  f=0.0011  <S**2>=0.000
       6 -> 16         0.43276
       6 -> 17        -0.10636
       9 -> 22         0.16776
       9 -> 23        -0.31048

 The electronic state is 1-A.
 Alpha  occ. eigenvalues --  -14.45429 -14.39257 -10.35245  -1.04944  -0.95122
 Alpha  occ. eigenvalues --   -0.71653  -0.63141  -0.60068  -0.49681  -0.46683
 Alpha  occ. eigenvalues --   -0.35019  -0.32985
 Alpha virt. eigenvalues --    0.10007   0.10789   0.13018   0.17040   0.19720
 Alpha virt. eigenvalues --    0.24591   0.28167   0.30415   0.35596   0.40339
 Alpha virt. eigenvalues --    0.41418   0.45266   0.47127   0.49161   0.51745

 Mulliken charges:
               1
     1  N   -0.473770
     2  C    0.098831
     3  N   -0.410792
     4  H    0.250811
     5  H    0.240582
     6  H    0.116155
     7  H    0.178182
 Sum of Mulliken charges =  -0.00000

 Dipole moment (field-independent basis, Debye):
    X=              3.5489    Y=             -0.7842    Z=              0.6053  Tot=              3.6845
 Quadrupole moment (field-independent basis, Debye-Ang):
   XX=            -20.4790   YY=            -14.3232   ZZ=            -20.6878
   XY=              1.3993   XZ=              1.2220   YZ=             -0.1670

 Normal termination of Gaussian 16 at Sat Aug 14 06:20:25 2021.
