 Gaussian 16, Revision C.01,
 Gaussian 16:  EM64L-G16RevC.01  3-Jul-2019

 ----------------------------------------------------------------------
 #P TD(Nstates=10000) wB97XD/def2TZVP SCF(maxcycles=100) Int(Grid=ultra
 fine)
 ----------------------------------------------------------------------

 ---------------------
 xGDB7_00001_tier4.com
 ---------------------
 Symbolic Z-matrix:
 Charge =  0 Multiplicity = 1

                         Standard orientation:
 ---------------------------------------------------------------------
 Center     Atomic      Atomic             Coordinates (Angstroms)
 Number     Number       Type             X           Y           Z
 ---------------------------------------------------------------------
      1          6           0       -0.049078    0.702042   -0.000000
      2          7           0       -0.049078   -0.754243    0.000000
      3          1           0        0.946109    1.166603   -0.000000
      4          1           0       -0.587574    1.062597    0.877770
      5          1           0       -0.587574    1.062597   -0.877770
      6          1           0        0.433525   -1.112175    0.812504
      7          1           0        0.433525   -1.112175   -0.812504
 ---------------------------------------------------------------------

 SCF Done:  E(RwB97XD) =  -95.8659632005     A.U. after   13 cycles

 Excitation energies and oscillator strengths:

 Excited State   1:      Singlet-A'     6.6099 eV  187.57 nm  f=0.0077  <S**2>=0.000
       9 -> 10         0.69604
       9 -> 11        -0.10800
 This state for optimization and/or second-order correction.
 Total Energy, E(TD-HF/TD-DFT) =  -95.6230537462
 Copying the excited state density for this state as the 1-particle RhoCI density.

 Excited State   2:      Singlet-A"     8.3029 eV  149.33 nm  f=0.0150  <S**2>=0.000
       9 -> 12         0.69528
       9 -> 14        -0.10134

 Excited State   3:      Singlet-A'     8.3045 eV  149.30 nm  f=0.0543  <S**2>=0.000
       9 -> 10         0.10658
       9 -> 11         0.69231

 Excited State   4:      Singlet-A'     9.4952 eV  130.58 nm  f=0.1348  <S**2>=0.000
       9 -> 13         0.69783

 Excited State   5:      Singlet-A"     9.5238 eV  130.18 nm  f=0.0017  <S**2>=0.000
       9 -> 12         0.10111
       9 -> 14         0.69622

 Excited State   6:      Singlet-A'    10.2455 eV  121.01 nm  f=0.0083  <S**2>=0.000
       9 -> 15         0.68988

 Excited State   7:      Singlet-A"    10.3350 eV  119.97 nm  f=0.0050  <S**2>=0.000
       8 -> 10         0.69615

 Excited State   8:      Singlet-A'    11.4310 eV  108.46 nm  f=0.0598  <S**2>=0.000
       7 -> 10         0.69270

 Excited State   9:      Singlet-A"    11.5088 eV  107.73 nm  f=0.2017  <S**2>=0.000
       8 -> 11         0.69071

 Excited State  10:      Singlet-A'    12.0483 eV  102.91 nm  f=0.0193  <S**2>=0.000
       6 -> 10         0.14839
       7 -> 11        -0.10067
       8 -> 12         0.28146
       9 -> 16         0.59666
       9 -> 18         0.14274

 Excited State  11:      Singlet-A'    12.2752 eV  101.00 nm  f=0.3757  <S**2>=0.000
       6 -> 10         0.17255
       7 -> 11         0.24555
       8 -> 12         0.56621
       9 -> 16        -0.24629
       9 -> 18        -0.10647

 Excited State  12:      Singlet-A"    12.3263 eV  100.59 nm  f=0.0052  <S**2>=0.000
       7 -> 12        -0.13797
       8 -> 13        -0.25137
       9 -> 17         0.63601

 Excited State  13:      Singlet-A'    12.3804 eV  100.15 nm  f=0.0958  <S**2>=0.000
       6 -> 10         0.55873
       7 -> 11         0.29467
       8 -> 12        -0.28474

 Excited State  14:      Singlet-A"    12.5893 eV   98.48 nm  f=0.0451  <S**2>=0.000
       7 -> 12        -0.10091
       8 -> 13         0.64771
       9 -> 17         0.23647

 Excited State  15:      Singlet-A'    12.7312 eV   97.39 nm  f=0.0391  <S**2>=0.000
       6 -> 10        -0.33702
       7 -> 11         0.56899
       9 -> 16         0.19302

 Excited State  16:      Singlet-A'    12.9775 eV   95.54 nm  f=0.0203  <S**2>=0.000
       6 -> 11        -0.19673
       8 -> 14        -0.26913
       9 -> 16        -0.16473
       9 -> 18         0.57906

 Excited State  17:      Singlet-A'    13.0456 eV   95.04 nm  f=0.0300  <S**2>=0.000
       7 -> 13        -0.12382
       8 -> 14         0.61142
       9 -> 18         0.28650

 Excited State  18:      Singlet-A"    13.1408 eV   94.35 nm  f=0.0491  <S**2>=0.000
       7 -> 12         0.65555
       8 -> 15        -0.12924
       9 -> 17         0.15428

 Excited State  19:      Singlet-A"    13.3830 eV   92.64 nm  f=0.1237  <S**2>=0.000
       5 -> 10         0.42150
       5 -> 11        -0.11594
       7 -> 12         0.12966
       7 -> 14        -0.22681
       8 -> 15         0.47103

 Excited State  20:      Singlet-A'    13.7126 eV   90.42 nm  f=0.2375  <S**2>=0.000
       6 -> 11         0.65869
       8 -> 14        -0.12979
       9 -> 18         0.15318

 Excited State  21:      Singlet-A"    13.7588 eV   90.11 nm  f=0.0716  <S**2>=0.000
       6 -> 12         0.30036
       7 -> 14         0.56578
       8 -> 15         0.24697
       8 -> 16         0.11300

 Excited State  22:      Singlet-A'    13.8140 eV   89.75 nm  f=0.0150  <S**2>=0.000
       7 -> 13         0.67293

 Excited State  23:      Singlet-A"    13.9462 eV   88.90 nm  f=0.0710  <S**2>=0.000
       5 -> 10         0.53833
       7 -> 14         0.14193
       8 -> 11        -0.10159
       8 -> 15        -0.40580

 Excited State  24:      Singlet-A"    14.1505 eV   87.62 nm  f=0.0221  <S**2>=0.000
       6 -> 12         0.56429
       7 -> 14        -0.26999
       9 -> 19         0.28723

 Excited State  25:      Singlet-A'    14.6200 eV   84.80 nm  f=0.0215  <S**2>=0.000
       5 -> 12        -0.16750
       6 -> 13         0.62835
       7 -> 15         0.16293
       8 -> 17        -0.14803

 Excited State  26:      Singlet-A"    14.6202 eV   84.80 nm  f=0.1502  <S**2>=0.000
       6 -> 12        -0.25180
       9 -> 19         0.62635

 Excited State  27:      Singlet-A"    14.8368 eV   83.57 nm  f=0.0548  <S**2>=0.000
       6 -> 14         0.68990

 Excited State  28:      Singlet-A'    14.8507 eV   83.49 nm  f=0.1313  <S**2>=0.000
       5 -> 12         0.13976
       6 -> 13        -0.12265
       7 -> 15         0.64839
       8 -> 17         0.10021

 Excited State  29:      Singlet-A"    15.2681 eV   81.20 nm  f=0.0016  <S**2>=0.000
       5 -> 11         0.60616
       8 -> 16         0.30172
       8 -> 18         0.10225

 Excited State  30:      Singlet-A'    15.3750 eV   80.64 nm  f=0.1652  <S**2>=0.000
       5 -> 12         0.44483
       6 -> 13         0.20271
       6 -> 15         0.13134
       8 -> 17         0.11910
       9 -> 20         0.30543
       9 -> 21        -0.29513

 Excited State  31:      Singlet-A"    15.5857 eV   79.55 nm  f=0.0611  <S**2>=0.000
       5 -> 11        -0.30247
       7 -> 17        -0.10485
       8 -> 16         0.59911

 Excited State  32:      Singlet-A'    15.7101 eV   78.92 nm  f=0.0907  <S**2>=0.000
       5 -> 12        -0.33982
       6 -> 15         0.52128
       8 -> 17         0.23290
       9 -> 21        -0.18801

 Excited State  33:      Singlet-A'    16.2059 eV   76.51 nm  f=0.0994  <S**2>=0.000
       6 -> 15        -0.15942
       7 -> 16        -0.33352
       8 -> 17         0.51397
       9 -> 21         0.21637

 Excited State  34:      Singlet-A"    16.3754 eV   75.71 nm  f=0.0305  <S**2>=0.000
       5 -> 13         0.66126
       7 -> 17         0.13515
       8 -> 18        -0.14004

 Excited State  35:      Singlet-A'    16.3815 eV   75.69 nm  f=0.0084  <S**2>=0.000
       5 -> 12        -0.13417
       5 -> 14        -0.22103
       7 -> 16         0.36623
       8 -> 17         0.16715
       9 -> 20         0.40604
       9 -> 21         0.25637
       9 -> 22        -0.14480

 Excited State  36:      Singlet-A'    16.5599 eV   74.87 nm  f=0.0339  <S**2>=0.000
       5 -> 12         0.13600
       5 -> 14         0.22214
       6 -> 15         0.29168
       7 -> 16        -0.21760
       7 -> 18         0.11432
       8 -> 17        -0.23006
       9 -> 20         0.18228
       9 -> 21         0.38427
       9 -> 22        -0.18179

 Excited State  37:      Singlet-A"    16.6040 eV   74.67 nm  f=0.0176  <S**2>=0.000
       5 -> 11        -0.11059
       7 -> 17         0.34408
       8 -> 18         0.58276

 Excited State  38:      Singlet-A'    16.6515 eV   74.46 nm  f=0.0335  <S**2>=0.000
       5 -> 14         0.56150
       6 -> 15        -0.11640
       7 -> 16         0.19525
       7 -> 18        -0.14543
       9 -> 20         0.18099
       9 -> 22         0.22905

 Excited State  39:      Singlet-A'    16.9701 eV   73.06 nm  f=0.1662  <S**2>=0.000
       5 -> 12        -0.16038
       5 -> 14        -0.14588
       6 -> 18        -0.12537
       7 -> 16        -0.31183
       7 -> 18         0.10401
       9 -> 20         0.33420
       9 -> 22         0.42722

 Excited State  40:      Singlet-A"    17.0280 eV   72.81 nm  f=0.1726  <S**2>=0.000
       5 -> 13        -0.19040
       5 -> 15         0.22281
       7 -> 17         0.55413
       8 -> 18        -0.27061

 Excited State  41:      Singlet-A"    17.3382 eV   71.51 nm  f=0.0063  <S**2>=0.000
       5 -> 15         0.64571
       7 -> 17        -0.16673
       8 -> 18         0.16794

 Excited State  42:      Singlet-A'    17.5544 eV   70.63 nm  f=0.0398  <S**2>=0.000
       5 -> 12        -0.11552
       6 -> 16         0.58672
       7 -> 16        -0.10793
       9 -> 20         0.10871
       9 -> 21        -0.16234
       9 -> 22        -0.13411
       9 -> 24        -0.15235

 Excited State  43:      Singlet-A'    17.5997 eV   70.45 nm  f=0.0256  <S**2>=0.000
       5 -> 12         0.18256
       6 -> 15         0.18514
       6 -> 16         0.32874
       7 -> 16         0.13666
       7 -> 18        -0.17325
       9 -> 20        -0.13252
       9 -> 21         0.24100
       9 -> 22         0.32930
       9 -> 24         0.13646

 Excited State  44:      Singlet-A"    17.6845 eV   70.11 nm  f=0.0170  <S**2>=0.000
       6 -> 17         0.69516

 Excited State  45:      Singlet-A'    17.8499 eV   69.46 nm  f=0.0250  <S**2>=0.000
       6 -> 16         0.13856
       6 -> 18         0.16669
       7 -> 16         0.12731
       7 -> 18         0.59295
       9 -> 22         0.12674

 Excited State  46:      Singlet-A"    18.4478 eV   67.21 nm  f=0.0005  <S**2>=0.000
       9 -> 23         0.65966
       9 -> 26        -0.22449

 Excited State  47:      Singlet-A'    18.6854 eV   66.35 nm  f=0.0802  <S**2>=0.000
       4 -> 10         0.12882
       8 -> 19        -0.41066
       9 -> 22        -0.10463
       9 -> 24         0.28615
       9 -> 25         0.43600

 Excited State  48:      Singlet-A'    18.8228 eV   65.87 nm  f=0.0538  <S**2>=0.000
       4 -> 10         0.52652
       6 -> 18        -0.39868
       9 -> 24        -0.12987
       9 -> 25        -0.11416

 Excited State  49:      Singlet-A'    18.9352 eV   65.48 nm  f=0.0378  <S**2>=0.000
       4 -> 10         0.32001
       6 -> 18         0.27748
       8 -> 19         0.42609
       9 -> 24         0.27139
       9 -> 25         0.14745

 Excited State  50:      Singlet-A'    18.9907 eV   65.29 nm  f=0.0996  <S**2>=0.000
       4 -> 11         0.11073
       6 -> 18        -0.11327
       8 -> 19         0.21643
       9 -> 24        -0.36923
       9 -> 25         0.46573
       9 -> 27         0.15606

 Excited State  51:      Singlet-A"    19.0451 eV   65.10 nm  f=0.0497  <S**2>=0.000
       5 -> 16         0.61589
       5 -> 18         0.10837
       7 -> 19        -0.12150
       8 -> 21        -0.23680

 Excited State  52:      Singlet-A"    19.3420 eV   64.10 nm  f=0.0124  <S**2>=0.000
       7 -> 19        -0.20901
       9 -> 23         0.20783
       9 -> 26         0.62400

 Excited State  53:      Singlet-A'    19.4109 eV   63.87 nm  f=0.3963  <S**2>=0.000
       4 -> 10        -0.19649
       5 -> 17        -0.30994
       6 -> 18        -0.29465
       7 -> 18         0.16949
       7 -> 21         0.14623
       8 -> 19         0.22055
       9 -> 22        -0.13288
       9 -> 24         0.31632
       9 -> 27        -0.14698

 Excited State  54:      Singlet-A"    19.4518 eV   63.74 nm  f=0.0039  <S**2>=0.000
       5 -> 16         0.13194
       5 -> 18        -0.10335
       7 -> 19         0.56855
       8 -> 20        -0.27670
       8 -> 21        -0.11860
       9 -> 26         0.15488

 Excited State  55:      Singlet-A'    19.5060 eV   63.56 nm  f=0.0034  <S**2>=0.000
       4 -> 10        -0.12247
       5 -> 17         0.61044
       6 -> 18        -0.19513
       7 -> 21         0.12414

 Excited State  56:      Singlet-A"    19.5525 eV   63.41 nm  f=0.0090  <S**2>=0.000
       5 -> 16         0.10967
       5 -> 18        -0.11941
       7 -> 19         0.25486
       8 -> 20         0.56194
       8 -> 21         0.24944

 Excited State  57:      Singlet-A"    19.7541 eV   62.76 nm  f=0.0008  <S**2>=0.000
       5 -> 16         0.25294
       8 -> 20        -0.28792
       8 -> 21         0.56725

 Excited State  58:      Singlet-A'    20.0330 eV   61.89 nm  f=0.0890  <S**2>=0.000
       4 -> 11         0.57245
       7 -> 20        -0.13337
       9 -> 24         0.10127
       9 -> 25        -0.11240
       9 -> 27         0.30193

 Excited State  59:      Singlet-A"    20.0913 eV   61.71 nm  f=0.0116  <S**2>=0.000
       4 -> 12        -0.11671
       5 -> 18         0.56983
       6 -> 19         0.27616
       7 -> 19         0.16473
       8 -> 21         0.11635
       9 -> 26         0.10094

 Excited State  60:      Singlet-A'    20.2204 eV   61.32 nm  f=0.1283  <S**2>=0.000
       4 -> 11        -0.30922
       6 -> 18        -0.11498
       8 -> 23         0.12514
       9 -> 25        -0.13513
       9 -> 27         0.57031

 Excited State  61:      Singlet-A"    20.4660 eV   60.58 nm  f=0.0150  <S**2>=0.000
       4 -> 12         0.45304
       4 -> 14         0.12036
       5 -> 18         0.28833
       6 -> 19        -0.32298
       8 -> 22        -0.26121

 Excited State  62:      Singlet-A'    20.5649 eV   60.29 nm  f=0.0015  <S**2>=0.000
       4 -> 13        -0.21574
       6 -> 20        -0.13158
       6 -> 21         0.12640
       7 -> 20         0.60410
       7 -> 22        -0.13334

 Excited State  63:      Singlet-A"    20.5701 eV   60.27 nm  f=0.0046  <S**2>=0.000
       4 -> 12         0.50751
       5 -> 18        -0.10928
       6 -> 19         0.32408
       8 -> 22         0.31305

 Excited State  64:      Singlet-A'    20.8614 eV   59.43 nm  f=0.0535  <S**2>=0.000
       6 -> 18         0.11917
       6 -> 20         0.24035
       7 -> 20         0.15171
       7 -> 21         0.58907
       8 -> 23        -0.11359

 Excited State  65:      Singlet-A"    20.8720 eV   59.40 nm  f=0.2014  <S**2>=0.000
       6 -> 19        -0.38905
       8 -> 22         0.51908
       8 -> 24        -0.12238

 Excited State  66:      Singlet-A'    21.0438 eV   58.92 nm  f=0.0091  <S**2>=0.000
       4 -> 13         0.65352
       7 -> 20         0.19974

 Excited State  67:      Singlet-A"    21.2396 eV   58.37 nm  f=0.0000  <S**2>=0.000
       4 -> 14         0.66607
       6 -> 19         0.16191
       8 -> 24        -0.10976

 Excited State  68:      Singlet-A'    21.6201 eV   57.35 nm  f=0.1068  <S**2>=0.000
       4 -> 15        -0.13041
       6 -> 20        -0.12900
       6 -> 21        -0.34536
       7 -> 20         0.11552
       7 -> 22         0.51540
       8 -> 23        -0.16820

 Excited State  69:      Singlet-A'    21.6974 eV   57.14 nm  f=0.0453  <S**2>=0.000
       4 -> 15         0.16410
       5 -> 19         0.34812
       6 -> 20        -0.36208
       6 -> 21         0.36914
       7 -> 21         0.11999
       7 -> 22         0.19005

 Excited State  70:      Singlet-A'    21.7807 eV   56.92 nm  f=0.0102  <S**2>=0.000
       4 -> 15         0.29367
       5 -> 19         0.25846
       6 -> 20         0.39273
       7 -> 20         0.10090
       7 -> 21        -0.16415
       7 -> 22         0.18075
       8 -> 23         0.16798
       9 -> 28        -0.13386

 Excited State  71:      Singlet-A"    21.9304 eV   56.54 nm  f=0.0262  <S**2>=0.000
       4 -> 14         0.10211
       7 -> 23         0.10609
       8 -> 22         0.15064
       8 -> 24         0.65273

 Excited State  72:      Singlet-A'    21.9337 eV   56.53 nm  f=0.0262  <S**2>=0.000
       4 -> 15         0.21027
       5 -> 19        -0.34420
       6 -> 20         0.10141
       6 -> 21         0.14725
       7 -> 22         0.18614
       9 -> 28         0.48366

 Excited State  73:      Singlet-A'    22.3599 eV   55.45 nm  f=0.0582  <S**2>=0.000
       4 -> 15         0.41859
       5 -> 19        -0.14649
       6 -> 21        -0.12112
       6 -> 22         0.25683
       8 -> 23        -0.35889
       9 -> 28        -0.23618

 Excited State  74:      Singlet-A'    22.3736 eV   55.42 nm  f=0.2254  <S**2>=0.000
       4 -> 15        -0.25578
       5 -> 19        -0.25570
       6 -> 20         0.11422
       6 -> 21         0.36954
       7 -> 22         0.21447
       9 -> 28        -0.33751

 Excited State  75:      Singlet-A'    22.5997 eV   54.86 nm  f=0.1453  <S**2>=0.000
       5 -> 19        -0.12271
       6 -> 20        -0.11505
       6 -> 22         0.32626
       7 -> 21         0.10633
       7 -> 22         0.15194
       7 -> 24         0.33242
       8 -> 23         0.38555
       9 -> 28        -0.13826

 Excited State  76:      Singlet-A'    22.6391 eV   54.77 nm  f=0.0933  <S**2>=0.000
       4 -> 15        -0.22056
       5 -> 19         0.25033
       6 -> 20         0.23708
       6 -> 22         0.44141
       7 -> 24         0.13746
       8 -> 23        -0.18502
       9 -> 28         0.19618

 Excited State  77:      Singlet-A"    22.7188 eV   54.57 nm  f=0.0152  <S**2>=0.000
       5 -> 20         0.48913
       5 -> 21        -0.44085
       7 -> 23         0.15516

 Excited State  78:      Singlet-A"    22.8768 eV   54.20 nm  f=0.0002  <S**2>=0.000
       5 -> 20        -0.18064
       7 -> 23         0.56997
       8 -> 24        -0.11033
       8 -> 25         0.23128
       8 -> 27        -0.23680

 Excited State  79:      Singlet-A"    23.0448 eV   53.80 nm  f=0.0128  <S**2>=0.000
       5 -> 21        -0.17985
       5 -> 22        -0.13055
       5 -> 25        -0.13500
       7 -> 23        -0.17415
       8 -> 25         0.58759
       8 -> 27         0.17607

 Excited State  80:      Singlet-A'    23.2009 eV   53.44 nm  f=0.0030  <S**2>=0.000
       6 -> 22        -0.20785
       6 -> 24        -0.24530
       7 -> 24         0.53671
       7 -> 25        -0.13706
       8 -> 23        -0.18723

 Excited State  81:      Singlet-A"    23.6116 eV   52.51 nm  f=0.0262  <S**2>=0.000
       5 -> 20         0.39967
       5 -> 21         0.45404
       5 -> 22        -0.16334
       6 -> 23        -0.20691
       8 -> 25         0.16920

 Excited State  82:      Singlet-A'    23.6473 eV   52.43 nm  f=0.0475  <S**2>=0.000
       4 -> 16         0.37586
       6 -> 24         0.12907
       7 -> 25        -0.15974
       7 -> 27        -0.18984
       8 -> 26         0.48910

 Excited State  83:      Singlet-A"    23.7277 eV   52.25 nm  f=0.0159  <S**2>=0.000
       4 -> 17        -0.11408
       5 -> 21         0.11445
       5 -> 22        -0.16486
       6 -> 23         0.48851
       7 -> 23        -0.15661
       7 -> 26         0.18784
       8 -> 27        -0.35571

 Excited State  84:      Singlet-A"    23.9014 eV   51.87 nm  f=0.0730  <S**2>=0.000
       4 -> 17         0.20598
       5 -> 20         0.14473
       5 -> 21         0.11621
       5 -> 22         0.25894
       6 -> 23         0.43020
       6 -> 26         0.10071
       7 -> 23         0.13067
       7 -> 26        -0.15904
       8 -> 27         0.32091

 Excited State  85:      Singlet-A'    23.9931 eV   51.67 nm  f=0.0213  <S**2>=0.000
       4 -> 16         0.56753
       7 -> 27         0.18575
       8 -> 26        -0.31448

 Excited State  86:      Singlet-A"    24.1543 eV   51.33 nm  f=0.1228  <S**2>=0.000
       4 -> 17        -0.11570
       5 -> 20         0.10674
       5 -> 22         0.50763
       6 -> 23        -0.11407
       7 -> 23        -0.12555
       8 -> 25         0.16094
       8 -> 27        -0.23324
       9 -> 30        -0.29197

 Excited State  87:      Singlet-A'    24.1747 eV   51.29 nm  f=0.0083  <S**2>=0.000
       3 -> 10        -0.41452
       6 -> 24        -0.10623
       6 -> 25        -0.11152
       7 -> 25         0.46909
       8 -> 26         0.16270
       9 -> 29        -0.13452

 Excited State  88:      Singlet-A"    24.2222 eV   51.19 nm  f=0.0195  <S**2>=0.000
       4 -> 17         0.61835
       7 -> 26         0.24751
       8 -> 27        -0.10646

 Excited State  89:      Singlet-A'    24.4142 eV   50.78 nm  f=0.0622  <S**2>=0.000
       3 -> 10        -0.16953
       4 -> 16        -0.11870
       4 -> 18        -0.12292
       6 -> 24         0.44061
       6 -> 27        -0.11316
       7 -> 25        -0.11800
       7 -> 27         0.43172

 Excited State  90:      Singlet-A'    24.5261 eV   50.55 nm  f=0.1406  <S**2>=0.000
       3 -> 10        -0.35376
       6 -> 24        -0.30480
       7 -> 24        -0.10416
       7 -> 25        -0.27757
       7 -> 27         0.14300
       9 -> 29         0.37375

 Excited State  91:      Singlet-A"    24.5275 eV   50.55 nm  f=0.0312  <S**2>=0.000
       4 -> 17        -0.17452
       6 -> 26        -0.18864
       7 -> 26         0.54685
       8 -> 27         0.29967
       9 -> 30        -0.10126

 Excited State  92:      Singlet-A'    24.8297 eV   49.93 nm  f=0.0042  <S**2>=0.000
       3 -> 10         0.26192
       5 -> 23        -0.19726
       6 -> 24        -0.18078
       6 -> 25         0.17055
       6 -> 27         0.24065
       7 -> 27         0.40012
       8 -> 26         0.19860

 Excited State  93:      Singlet-A"    24.9014 eV   49.79 nm  f=0.2981  <S**2>=0.000
       5 -> 22         0.21746
       5 -> 24        -0.16207
       6 -> 26         0.14550
       7 -> 26         0.17698

 The electronic state is 1-A'.
 Alpha  occ. eigenvalues --  -14.40755 -10.29490  -0.97457  -0.75404  -0.57819
 Alpha  occ. eigenvalues --   -0.52556  -0.48781  -0.44949  -0.32029
 Alpha virt. eigenvalues --    0.11200   0.15465   0.17471   0.20011   0.20875
 Alpha virt. eigenvalues --    0.24437   0.31342   0.31962   0.36511   0.42318
 Alpha virt. eigenvalues --    0.46075   0.47310   0.50365   0.55026   0.55252

 Mulliken charges:
               1
     1  C   -0.220860
     2  N   -0.533292
     3  H    0.091938
     4  H    0.113824
     5  H    0.113824
     6  H    0.217283
     7  H    0.217283
 Sum of Mulliken charges =  -0.00000

 Dipole moment (field-independent basis, Debye):
    X=              1.3357    Y=              0.3209    Z=             -0.0000  Tot=              1.3737
 Quadrupole moment (field-independent basis, Debye-Ang):
   XX=            -14.9705   YY=            -14.1978   ZZ=            -12.4896
   XY=             -2.2048   XZ=              0.0000   YZ=             -0.0000

 Normal termination of Gaussian 16 at Sat Aug 14 06:18:12 2021.
