 Gaussian 16, Revision C.01,
 Gaussian 16:  EM64L-G16RevC.01  3-Jul-2019

 ----------------------------------------------------------------------
 #P TD(Nstates=10000) wB97XD/def2TZVP SCF(maxcycles=100) Int(Grid=ultra
 fine)
 ----------------------------------------------------------------------

 ---------------------
 xGDB7_00001_tier4.com
 ---------------------
 Symbolic Z-matrix:
 Charge =  0 Multiplicity = 1

                         Standard orientation:
 ---------------------------------------------------------------------
 Center     Atomic      Atomic             Coordinates (Angstroms)
 Number     Number       Type             X           Y           Z
 ---------------------------------------------------------------------
      1          6           0        0.000000    0.000000    0.761397
      2          6           0       -0.000000   -0.000000   -0.761397
      3          1           0        0.000000    1.017110    1.157248
      4          1           0        0.880843   -0.508555    1.157248
      5          1           0       -0.880843   -0.508555    1.157248
      6          1           0        0.880843    0.508555   -1.157248
      7          1           0       -0.880843    0.508555   -1.157248
      8          1           0       -0.000000   -1.017110   -1.157248
 ---------------------------------------------------------------------

 SCF Done:  E(RwB97XD) =  -79.8327686570     A.U. after   12 cycles

 Excitation energies and oscillator strengths:

 Excited State   1:      Singlet-EG     9.9126 eV  125.08 nm  f=0.0000  <S**2>=0.000
       8 -> 10         0.69941
 This state for optimization and/or second-order correction.
 Total Energy, E(TD-HF/TD-DFT) =  -79.4684880672
 Copying the excited state density for this state as the 1-particle RhoCI density.

 Excited State   2:      Singlet-EG     9.9126 eV  125.08 nm  f=0.0000  <S**2>=0.000
       9 -> 10         0.69941

 Excited State   3:      Singlet-A1G   10.7701 eV  115.12 nm  f=0.0000  <S**2>=0.000
       7 -> 10         0.70082

 Excited State   4:      Singlet-EU    11.1166 eV  111.53 nm  f=0.2475  <S**2>=0.000
       6 -> 10         0.14828
       9 -> 11         0.67905

 Excited State   5:      Singlet-EU    11.1166 eV  111.53 nm  f=0.2475  <S**2>=0.000
       5 -> 10         0.14828
       8 -> 11         0.67905

 Excited State   6:      Singlet-EG    11.7933 eV  105.13 nm  f=0.0000  <S**2>=0.000
       8 -> 13         0.49421
       9 -> 12        -0.49405

 Excited State   7:      Singlet-EG    11.8386 eV  104.73 nm  f=0.1363  <S**2>=0.000
       8 -> 13         0.49032
       9 -> 12         0.49049

 Excited State   8:      Singlet-EG    11.8387 eV  104.73 nm  f=0.1363  <S**2>=0.000
       8 -> 12        -0.49040
       9 -> 13         0.49040

 Excited State   9:      Singlet-A2U   11.8716 eV  104.44 nm  f=0.4381  <S**2>=0.000
       7 -> 11         0.70041

 Excited State  10:      Singlet-EU    11.9808 eV  103.49 nm  f=0.0000  <S**2>=0.000
       8 -> 14         0.49343
       9 -> 15         0.49340

 Excited State  11:      Singlet-EG    12.1399 eV  102.13 nm  f=0.4413  <S**2>=0.000
       8 -> 12         0.49351
       9 -> 13         0.49351

 Excited State  12:      Singlet-EU    12.2035 eV  101.60 nm  f=0.0000  <S**2>=0.000
       8 -> 14        -0.48785
       9 -> 15         0.48788

 Excited State  13:      Singlet-EU    12.2035 eV  101.60 nm  f=0.0000  <S**2>=0.000
       8 -> 15         0.48788
       9 -> 14         0.48786

 Excited State  14:      Singlet-EU    12.3070 eV  100.74 nm  f=0.0000  <S**2>=0.000
       8 -> 15        -0.48770
       9 -> 14         0.48772

 Excited State  15:      Singlet-EU    12.4449 eV   99.63 nm  f=0.0097  <S**2>=0.000
       5 -> 10         0.19524
       7 -> 12         0.66161
       8 -> 16         0.11629

 Excited State  16:      Singlet-EU    12.4449 eV   99.63 nm  f=0.0097  <S**2>=0.000
       6 -> 10         0.19523
       7 -> 13         0.66161
       9 -> 16         0.11629

 Excited State  17:      Singlet-EG    12.6313 eV   98.16 nm  f=0.0000  <S**2>=0.000
       7 -> 15         0.69822

 Excited State  18:      Singlet-EG    12.6313 eV   98.16 nm  f=0.0000  <S**2>=0.000
       7 -> 14         0.69822

 Excited State  19:      Singlet-EU    12.6796 eV   97.78 nm  f=0.2011  <S**2>=0.000
       5 -> 10         0.64027
       7 -> 12        -0.20186
       8 -> 11        -0.14656
       8 -> 16         0.12035

 Excited State  20:      Singlet-EU    12.6797 eV   97.78 nm  f=0.2011  <S**2>=0.000
       6 -> 10         0.64028
       7 -> 13        -0.20184
       9 -> 11        -0.14656
       9 -> 16         0.12034

 Excited State  21:      Singlet-EG    13.4979 eV   91.85 nm  f=0.0000  <S**2>=0.000
       6 -> 11         0.52270
       9 -> 17        -0.45787

 Excited State  22:      Singlet-EG    13.4979 eV   91.85 nm  f=0.0000  <S**2>=0.000
       5 -> 11         0.52270
       8 -> 17        -0.45787

 Excited State  23:      Singlet-EU    13.8239 eV   89.69 nm  f=0.0315  <S**2>=0.000
       5 -> 10        -0.15281
       8 -> 16         0.66496

 Excited State  24:      Singlet-EU    13.8240 eV   89.69 nm  f=0.0315  <S**2>=0.000
       6 -> 10        -0.15279
       9 -> 16         0.66497

 Excited State  25:      Singlet-EU    14.2690 eV   86.89 nm  f=0.0000  <S**2>=0.000
       5 -> 13         0.44140
       6 -> 12         0.44133
       8 -> 18         0.21246
       9 -> 19         0.21243

 Excited State  26:      Singlet-EU    14.2690 eV   86.89 nm  f=0.0000  <S**2>=0.000
       5 -> 12         0.44137
       6 -> 13        -0.44137
       8 -> 19         0.21244
       9 -> 18        -0.21244

 Excited State  27:      Singlet-EU    14.3210 eV   86.58 nm  f=0.0000  <S**2>=0.000
       5 -> 13        -0.46067
       6 -> 12         0.46075
       8 -> 18        -0.18017
       9 -> 19         0.18021

 Excited State  28:      Singlet-EG    14.4765 eV   85.64 nm  f=0.0000  <S**2>=0.000
       5 -> 14         0.43587
       6 -> 15         0.43587
       8 -> 21        -0.23301
       9 -> 20         0.23302

 Excited State  29:      Singlet-EG    14.5078 eV   85.46 nm  f=0.0000  <S**2>=0.000
       5 -> 11         0.46258
       8 -> 17         0.52085

 Excited State  30:      Singlet-EG    14.5078 eV   85.46 nm  f=0.0000  <S**2>=0.000
       6 -> 11         0.46258
       9 -> 17         0.52085

 Excited State  31:      Singlet-A1G   14.5640 eV   85.13 nm  f=0.0000  <S**2>=0.000
       5 -> 12        -0.31179
       6 -> 13        -0.31178
       7 -> 17         0.53713

 Excited State  32:      Singlet-A2U   14.5693 eV   85.10 nm  f=0.0909  <S**2>=0.000
       5 -> 15        -0.31591
       6 -> 14         0.31593
       7 -> 16         0.51693
       8 -> 20         0.10259
       9 -> 21         0.10259

 Excited State  33:      Singlet-EG    14.7912 eV   83.82 nm  f=0.0006  <S**2>=0.000
       5 -> 15         0.34665
       6 -> 14        -0.34664
       7 -> 16         0.31918
       8 -> 20         0.26670
       9 -> 21         0.26670

 Excited State  34:      Singlet-EG    15.0168 eV   82.56 nm  f=0.2819  <S**2>=0.000
       5 -> 15         0.47232
       6 -> 14         0.47232
       7 -> 21         0.11071
       8 -> 20        -0.11875
       9 -> 21         0.11874

 Excited State  35:      Singlet-EG    15.0168 eV   82.56 nm  f=0.2819  <S**2>=0.000
       5 -> 14        -0.47232
       6 -> 15         0.47232
       7 -> 20         0.11070
       8 -> 21        -0.11875
       9 -> 20        -0.11875

 Excited State  36:      Singlet-EG    15.2915 eV   81.08 nm  f=0.0000  <S**2>=0.000
       5 -> 14        -0.23681
       6 -> 15        -0.23680
       8 -> 21        -0.43666
       9 -> 20         0.43671

 Excited State  37:      Singlet-EU    15.3411 eV   80.82 nm  f=0.1830  <S**2>=0.000
       7 -> 20         0.40783
       8 -> 21         0.39225
       9 -> 20         0.39220

 Excited State  38:      Singlet-EU    15.3412 eV   80.82 nm  f=0.1831  <S**2>=0.000
       7 -> 21         0.40783
       8 -> 20         0.39223
       9 -> 21        -0.39223

 Excited State  39:      Singlet-EU    15.3640 eV   80.70 nm  f=0.0000  <S**2>=0.000
       5 -> 13         0.17528
       6 -> 12        -0.17529
       8 -> 18        -0.45832
       9 -> 19         0.45833

 Excited State  40:      Singlet-EU    15.4317 eV   80.34 nm  f=0.0000  <S**2>=0.000
       5 -> 12        -0.29549
       6 -> 13        -0.29551
       7 -> 17        -0.26881
       8 -> 19         0.35158
       9 -> 18         0.35160

 Excited State  41:      Singlet-EU    15.5315 eV   79.83 nm  f=0.0000  <S**2>=0.000
       5 -> 12        -0.21178
       6 -> 13         0.21176
       6 -> 16         0.10958
       8 -> 19         0.43988
       9 -> 18        -0.43986

 Excited State  42:      Singlet-EU    15.5315 eV   79.83 nm  f=0.0000  <S**2>=0.000
       5 -> 13        -0.21177
       5 -> 16         0.10958
       6 -> 12        -0.21177
       8 -> 18         0.43987
       9 -> 19         0.43986

 Excited State  43:      Singlet-EG    15.8443 eV   78.25 nm  f=0.0000  <S**2>=0.000
       7 -> 19         0.69878

 Excited State  44:      Singlet-EG    15.8443 eV   78.25 nm  f=0.0000  <S**2>=0.000
       7 -> 18         0.69878

 Excited State  45:      Singlet-EU    16.0667 eV   77.17 nm  f=0.2157  <S**2>=0.000
       5 -> 14         0.11003
       5 -> 17        -0.18845
       6 -> 15        -0.11003
       7 -> 20         0.54750
       8 -> 21        -0.23814
       9 -> 20        -0.23814

 Excited State  46:      Singlet-EU    16.0667 eV   77.17 nm  f=0.2157  <S**2>=0.000
       5 -> 15        -0.11003
       6 -> 14        -0.11003
       6 -> 17        -0.18845
       7 -> 21         0.54750
       8 -> 20        -0.23813
       9 -> 21         0.23814

 Excited State  47:      Singlet-EG    16.2364 eV   76.36 nm  f=0.6374  <S**2>=0.000
       5 -> 15        -0.13785
       6 -> 14         0.13785
       7 -> 16        -0.33269
       7 -> 24        -0.12483
       8 -> 20         0.39679
       9 -> 21         0.39679

 Excited State  48:      Singlet-EG    16.4285 eV   75.47 nm  f=0.0000  <S**2>=0.000
       5 -> 16         0.68303

 Excited State  49:      Singlet-EG    16.4286 eV   75.47 nm  f=0.0000  <S**2>=0.000
       6 -> 16         0.68303

 Excited State  50:      Singlet-A1G   16.5112 eV   75.09 nm  f=0.0000  <S**2>=0.000
       5 -> 12         0.23696
       6 -> 13         0.23696
       7 -> 17         0.34772
       8 -> 19         0.33437
       9 -> 18         0.33437

 Excited State  51:      Singlet-EU    16.8832 eV   73.44 nm  f=0.1171  <S**2>=0.000
       5 -> 17         0.65736
       8 -> 21        -0.11760
       8 -> 24         0.11867
       9 -> 20        -0.11760

 Excited State  52:      Singlet-EU    16.8832 eV   73.44 nm  f=0.1171  <S**2>=0.000
       6 -> 17         0.65736
       8 -> 20        -0.11760
       9 -> 21         0.11759
       9 -> 24         0.11867

 Excited State  53:      Singlet-EU    17.8271 eV   69.55 nm  f=0.0000  <S**2>=0.000
       5 -> 21        -0.49192
       6 -> 20         0.49193

 Excited State  54:      Singlet-EU    17.8834 eV   69.33 nm  f=0.0000  <S**2>=0.000
       5 -> 20         0.49453
       6 -> 21         0.49458

 Excited State  55:      Singlet-EU    17.9380 eV   69.12 nm  f=0.0000  <S**2>=0.000
       5 -> 20         0.49241
       6 -> 21        -0.49236

 Excited State  56:      Singlet-EU    17.9380 eV   69.12 nm  f=0.0000  <S**2>=0.000
       5 -> 21         0.49240
       6 -> 20         0.49238

 Excited State  57:      Singlet-A2U   17.9829 eV   68.95 nm  f=0.0371  <S**2>=0.000
       4 -> 10         0.62007
       5 -> 19         0.23244
       6 -> 18         0.23244

 Excited State  58:      Singlet-EG    18.0021 eV   68.87 nm  f=0.0000  <S**2>=0.000
       5 -> 18        -0.49266
       6 -> 19         0.49268

 Excited State  59:      Singlet-EG    18.0764 eV   68.59 nm  f=0.1216  <S**2>=0.000
       5 -> 18         0.48589
       6 -> 19         0.48587

 Excited State  60:      Singlet-EG    18.0764 eV   68.59 nm  f=0.1216  <S**2>=0.000
       5 -> 19        -0.48584
       6 -> 18         0.48592

 Excited State  61:      Singlet-EG    18.1315 eV   68.38 nm  f=0.0712  <S**2>=0.000
       4 -> 10        -0.29103
       5 -> 19         0.42045
       6 -> 18         0.42037
       7 -> 24        -0.18910

 Excited State  62:      Singlet-A1G   19.1821 eV   64.64 nm  f=0.0000  <S**2>=0.000
       4 -> 11         0.68044

 Excited State  63:      Singlet-EG    19.3883 eV   63.95 nm  f=0.0000  <S**2>=0.000
       4 -> 12        -0.31345
       8 -> 22         0.61613

 Excited State  64:      Singlet-EG    19.3883 eV   63.95 nm  f=0.0000  <S**2>=0.000
       4 -> 13        -0.31345
       9 -> 22         0.61612

 Excited State  65:      Singlet-EU    19.7277 eV   62.85 nm  f=0.0023  <S**2>=0.000
       5 -> 17        -0.10798
       8 -> 23        -0.27070
       8 -> 24         0.62357

 Excited State  66:      Singlet-EU    19.7278 eV   62.85 nm  f=0.0023  <S**2>=0.000
       6 -> 17        -0.10797
       9 -> 23        -0.27074
       9 -> 24         0.62355

 Excited State  67:      Singlet-EG    19.7405 eV   62.81 nm  f=0.0000  <S**2>=0.000
       4 -> 13         0.62153
       9 -> 22         0.31351

 Excited State  68:      Singlet-EG    19.7406 eV   62.81 nm  f=0.0000  <S**2>=0.000
       4 -> 12         0.62153
       8 -> 22         0.31351

 Excited State  69:      Singlet-EU    19.8904 eV   62.33 nm  f=0.0318  <S**2>=0.000
       4 -> 14         0.59545
       9 -> 23        -0.29649
       9 -> 24        -0.18474

 Excited State  70:      Singlet-EU    19.8904 eV   62.33 nm  f=0.0318  <S**2>=0.000
       4 -> 15         0.59545
       8 -> 23         0.29651
       8 -> 24         0.18472

 Excited State  71:      Singlet-A1G   20.1520 eV   61.52 nm  f=0.0000  <S**2>=0.000
       3 -> 10         0.10859
       4 -> 16         0.13614
       7 -> 22         0.68118

 Excited State  72:      Singlet-EU    20.3644 eV   60.88 nm  f=0.0724  <S**2>=0.000
       4 -> 14         0.35953
       6 -> 22         0.10294
       9 -> 23         0.56193
       9 -> 24         0.18710

 Excited State  73:      Singlet-EU    20.3644 eV   60.88 nm  f=0.0724  <S**2>=0.000
       4 -> 15        -0.35953
       5 -> 22         0.10293
       8 -> 23         0.56194
       8 -> 24         0.18707

 Excited State  74:      Singlet-EG    20.5884 eV   60.22 nm  f=0.0000  <S**2>=0.000
       8 -> 26         0.49271
       9 -> 25        -0.49268

 Excited State  75:      Singlet-EG    20.8497 eV   59.47 nm  f=0.0436  <S**2>=0.000
       7 -> 25         0.23992
       8 -> 26         0.45643
       9 -> 25         0.45647

 Excited State  76:      Singlet-EG    20.8497 eV   59.47 nm  f=0.0436  <S**2>=0.000
       7 -> 26         0.23993
       8 -> 25         0.45646
       9 -> 26        -0.45645

 Excited State  77:      Singlet-A2U   20.9018 eV   59.32 nm  f=0.0976  <S**2>=0.000
       7 -> 23         0.69226

 Excited State  78:      Singlet-EG    21.0497 eV   58.90 nm  f=0.1084  <S**2>=0.000
       4 -> 17         0.21739
       7 -> 24         0.26621
       8 -> 25         0.41600
       9 -> 26         0.41599

 Excited State  79:      Singlet-EU    21.4846 eV   57.71 nm  f=0.0877  <S**2>=0.000
       7 -> 25         0.64167
       8 -> 26        -0.15983
       9 -> 25        -0.15983

 Excited State  80:      Singlet-EU    21.4846 eV   57.71 nm  f=0.0877  <S**2>=0.000
       7 -> 26         0.64166
       8 -> 25        -0.15982
       9 -> 26         0.15986

 Excited State  81:      Singlet-A1G   21.6356 eV   57.31 nm  f=0.0000  <S**2>=0.000
       3 -> 10         0.62166
       4 -> 16         0.21048
       7 -> 22        -0.13625
       8 -> 28        -0.13775
       9 -> 27        -0.13775

 Excited State  82:      Singlet-A2U   21.7618 eV   56.97 nm  f=0.1064  <S**2>=0.000
       3 -> 11         0.29726
       4 -> 17        -0.20360
       7 -> 24         0.52154
       8 -> 25        -0.12491
       9 -> 26        -0.12490

 Excited State  83:      Singlet-EU    21.7839 eV   56.92 nm  f=0.0000  <S**2>=0.000
       5 -> 26         0.16688
       6 -> 25        -0.16686
       8 -> 27         0.46844
       9 -> 28        -0.46839

 Excited State  84:      Singlet-A1G   21.9344 eV   56.52 nm  f=0.0000  <S**2>=0.000
       3 -> 10        -0.24514
       4 -> 16         0.64181

 Excited State  85:      Singlet-A2U   21.9495 eV   56.49 nm  f=0.1921  <S**2>=0.000
       4 -> 17         0.59675
       7 -> 24         0.10416
       8 -> 25        -0.21958
       9 -> 26        -0.21957

 Excited State  86:      Singlet-EU    22.2360 eV   55.76 nm  f=0.0000  <S**2>=0.000
       4 -> 20         0.12617
       5 -> 23         0.13055
       5 -> 24        -0.25353
       5 -> 26         0.11224
       6 -> 25         0.11226
       7 -> 28         0.27867
       8 -> 27         0.36929
       8 -> 29         0.11433
       9 -> 28         0.36936

 Excited State  87:      Singlet-EU    22.2360 eV   55.76 nm  f=0.0000  <S**2>=0.000
       4 -> 21        -0.12619
       5 -> 25        -0.11226
       6 -> 23        -0.13043
       6 -> 24         0.25330
       6 -> 26         0.11226
       7 -> 27        -0.27881
       8 -> 28        -0.36936
       9 -> 27         0.36937
       9 -> 29        -0.11431

 Excited State  88:      Singlet-EU    22.3409 eV   55.50 nm  f=0.0392  <S**2>=0.000
       6 -> 22         0.68265
       9 -> 24        -0.10919

 Excited State  89:      Singlet-EU    22.3409 eV   55.50 nm  f=0.0392  <S**2>=0.000
       5 -> 22         0.68265
       8 -> 24        -0.10920

 Excited State  90:      Singlet-EG    22.3449 eV   55.49 nm  f=0.0000  <S**2>=0.000
       5 -> 23        -0.31855
       5 -> 24         0.46950
       7 -> 28         0.38439

 Excited State  91:      Singlet-EG    22.3449 eV   55.49 nm  f=0.0000  <S**2>=0.000
       6 -> 23        -0.31862
       6 -> 24         0.46960
       7 -> 27         0.38429

 Excited State  92:      Singlet-EG    22.5929 eV   54.88 nm  f=0.0000  <S**2>=0.000
       4 -> 20        -0.14012
       5 -> 23         0.10463
       5 -> 24        -0.27219
       7 -> 28         0.49305
       8 -> 27        -0.23187
       8 -> 29        -0.16090
       9 -> 28        -0.23187

 Excited State  93:      Singlet-EG    22.5929 eV   54.88 nm  f=0.0000  <S**2>=0.000
       4 -> 21        -0.14011
       6 -> 23         0.10465
       6 -> 24        -0.27222
       7 -> 27         0.49304
       8 -> 28        -0.23186
       9 -> 27         0.23185
       9 -> 29        -0.16089

 Excited State  94:      Singlet-EG    22.8796 eV   54.19 nm  f=0.0000  <S**2>=0.000
       3 -> 15         0.14601
       4 -> 20         0.15808
       5 -> 23         0.56086
       5 -> 24         0.33278
       8 -> 22        -0.10872

 Excited State  95:      Singlet-EG    22.8796 eV   54.19 nm  f=0.0000  <S**2>=0.000
       3 -> 14        -0.14602
       4 -> 21         0.15806
       6 -> 23         0.56085
       6 -> 24         0.33280
       9 -> 22        -0.10872

 Excited State  96:      Singlet-EU    22.9252 eV   54.08 nm  f=0.0000  <S**2>=0.000
       3 -> 10         0.13634
       4 -> 16         0.10610
       5 -> 25        -0.16636
       6 -> 26        -0.16636
       7 -> 29        -0.16605
       8 -> 28         0.43030
       9 -> 27         0.43031

 Excited State  97:      Singlet-EU    23.0363 eV   53.82 nm  f=0.0925  <S**2>=0.000
       3 -> 13         0.29872
       4 -> 18         0.61745

 Excited State  98:      Singlet-EU    23.0363 eV   53.82 nm  f=0.0925  <S**2>=0.000
       3 -> 12         0.29872
       4 -> 19         0.61745

 Excited State  99:      Singlet-EG    23.1815 eV   53.48 nm  f=0.0000  <S**2>=0.000
       3 -> 15         0.13319
       4 -> 20         0.59070
       5 -> 23        -0.16072
       5 -> 26         0.15442
       6 -> 25         0.15441
       8 -> 27        -0.13191
       8 -> 29        -0.10849
       9 -> 28        -0.13192

 Excited State 100:      Singlet-EG    23.1815 eV   53.48 nm  f=0.0000  <S**2>=0.000
       3 -> 14        -0.13320
       4 -> 21         0.59069
       5 -> 25         0.15442
       6 -> 23        -0.16072
       6 -> 26        -0.15442
       8 -> 28        -0.13192
       9 -> 27         0.13193
       9 -> 29        -0.10849

 Excited State 101:      Singlet-A2U   23.2118 eV   53.41 nm  f=0.0001  <S**2>=0.000
       3 -> 11         0.60887
       4 -> 17         0.20458
       5 -> 28        -0.13685
       6 -> 27        -0.13685
       7 -> 24        -0.15664

 Excited State 102:      Singlet-EU    23.4146 eV   52.95 nm  f=0.0000  <S**2>=0.000
       5 -> 26         0.46868
       6 -> 25        -0.46841
       8 -> 27        -0.16848
       9 -> 28         0.16839

 Excited State 103:      Singlet-EU    23.4180 eV   52.94 nm  f=0.0000  <S**2>=0.000
       4 -> 20        -0.19055
       5 -> 23         0.10018
       5 -> 26         0.42285
       6 -> 25         0.42315
       8 -> 27        -0.13925
       8 -> 29         0.20038
       9 -> 28        -0.13935

 Excited State 104:      Singlet-EU    23.4180 eV   52.94 nm  f=0.0000  <S**2>=0.000
       4 -> 21        -0.19055
       5 -> 25         0.42301
       6 -> 23         0.10018
       6 -> 26        -0.42300
       8 -> 28        -0.13929
       9 -> 27         0.13929
       9 -> 29         0.20038

 Excited State 105:      Singlet-EU    23.7174 eV   52.28 nm  f=0.0003  <S**2>=0.000
       3 -> 12         0.62063
       4 -> 19        -0.31741

 Excited State 106:      Singlet-EU    23.7174 eV   52.28 nm  f=0.0003  <S**2>=0.000
       3 -> 13         0.62063
       4 -> 18        -0.31741

 Excited State 107:      Singlet-EG    23.8799 eV   51.92 nm  f=0.0000  <S**2>=0.000
       3 -> 15         0.66064
       4 -> 20        -0.17722
       5 -> 23        -0.10692

 Excited State 108:      Singlet-EG    23.8799 eV   51.92 nm  f=0.0000  <S**2>=0.000
       3 -> 14         0.66063
       4 -> 21         0.17723
       6 -> 23         0.10692

 Excited State 109:      Singlet-A1G   23.9315 eV   51.81 nm  f=0.0000  <S**2>=0.000
       5 -> 25        -0.32096
       6 -> 26        -0.32096
       7 -> 29         0.52239

 Excited State 110:      Singlet-EG    24.1916 eV   51.25 nm  f=0.0000  <S**2>=0.000
       4 -> 21         0.12063
       5 -> 25        -0.14784
       6 -> 26         0.14784
       7 -> 27         0.10375
       8 -> 28        -0.10246
       9 -> 27         0.10247
       9 -> 29         0.63005

 Excited State 111:      Singlet-EG    24.1916 eV   51.25 nm  f=0.0000  <S**2>=0.000
       4 -> 20         0.12062
       5 -> 26        -0.14784
       6 -> 25        -0.14784
       7 -> 28         0.10375
       8 -> 27        -0.10247

 The electronic state is 1-A1G.
 Alpha  occ. eigenvalues --  -10.26850 -10.26829  -0.85223  -0.70972  -0.52182
 Alpha  occ. eigenvalues --   -0.52182  -0.45117  -0.42403  -0.42403
 Alpha virt. eigenvalues --    0.11924   0.15859   0.18918   0.18918   0.20255
 Alpha virt. eigenvalues --    0.20255   0.26996   0.27928   0.31992   0.31992
 Alpha virt. eigenvalues --    0.32543   0.32543   0.47380   0.49897   0.50751

 Mulliken charges:
               1
     1  C   -0.316364
     2  C   -0.316364
     3  H    0.105455
     4  H    0.105455
     5  H    0.105455
     6  H    0.105455
     7  H    0.105455
     8  H    0.105455
 Sum of Mulliken charges =  -0.00000

 Dipole moment (field-independent basis, Debye):
    X=              0.0000    Y=             -0.0000    Z=              0.0000  Tot=              0.0000
 Quadrupole moment (field-independent basis, Debye-Ang):
   XX=            -14.8053   YY=            -14.8053   ZZ=            -15.5619
   XY=             -0.0000   XZ=              0.0000   YZ=             -0.0000

 1\1\GINC-HEL18\SP\RwB97XD TD-FC\def2TZVP\C2H6\PRAKRITI\14-Aug-2021\0\\
 #P TD(Nstates=10000) wB97XD/def2TZVP SCF(maxcycles=100) Int(Grid=ultra
 fine)\\xGDB7_00001_tier4.com\\0,1\C,0,0.,0.,0.761397\C,0,0.,0.,-0.7613
 97\H,0,0.,1.01711,1.157248\H,0,0.880843,-0.508555,1.157248\H,0,-0.8808
 43,-0.508555,1.157248\H,0,0.880843,0.508555,-1.157248\H,0,-0.880843,0.
 508555,-1.157248\H,0,0.,-1.01711,-1.157248\\Version=EM64L-G16RevC.01\S
 tate=1-A1G\HF=-79.8327687\RMSD=3.551e-09\PG=D03D [C3(C1.C1),3SGD(H2)]\
 \@

 Normal termination of Gaussian 16 at Sat Aug 14 06:22:43 2021.
