 Gaussian 16, Revision C.01,
 Gaussian 16:  EM64L-G16RevC.01  3-Jul-2019

 ----------------------------------------------------------------------
 #P TD(Nstates=10000) wB97XD/def2TZVP SCF(maxcycles=100) Int(Grid=ultra
 fine)
 ----------------------------------------------------------------------

 ---------------------
 xGDB7_00001_tier4.com
 ---------------------
 Symbolic Z-matrix:
 Charge =  0 Multiplicity = 1

                         Standard orientation:
 ---------------------------------------------------------------------
 Center     Atomic      Atomic             Coordinates (Angstroms)
 Number     Number       Type             X           Y           Z
 ---------------------------------------------------------------------
      1          6           0       -0.000001    0.000006    0.000000
      2          1           0       -0.991926    0.448073    0.033817
      3          1           0        0.066172   -0.671147   -0.854975
      4          1           0        0.176250   -0.561167    0.916416
      5          1           0        0.749514    0.784204   -0.095260
 ---------------------------------------------------------------------

 SCF Done:  E(RwB97XD) =  -40.5192767944     A.U. after   12 cycles

 Excitation energies and oscillator strengths:

 Excited State   1:      Singlet-A     11.3892 eV  108.86 nm  f=0.2192  <S**2>=0.000
       5 ->  6         0.70269
 This state for optimization and/or second-order correction.
 Total Energy, E(TD-HF/TD-DFT) =  -40.1007328127
 Copying the excited state density for this state as the 1-particle RhoCI density.

 Excited State   2:      Singlet-A     11.3893 eV  108.86 nm  f=0.2192  <S**2>=0.000
       4 ->  6         0.70244

 Excited State   3:      Singlet-A     11.3894 eV  108.86 nm  f=0.2192  <S**2>=0.000
       3 ->  6         0.70243

 Excited State   4:      Singlet-A     13.1084 eV   94.58 nm  f=0.0000  <S**2>=0.000
       3 ->  7         0.12235
       3 ->  8        -0.25656
       3 ->  9         0.13926
       4 ->  7        -0.14676
       4 ->  8         0.30965
       4 ->  9        -0.16865
       5 ->  7         0.40626
       5 ->  9        -0.28253

 Excited State   5:      Singlet-A     13.1085 eV   94.58 nm  f=0.0000  <S**2>=0.000
       3 ->  7         0.18004
       3 ->  8        -0.33384
       4 ->  7         0.20471
       4 ->  8        -0.20155
       4 ->  9         0.15407
       5 ->  7         0.20714
       5 ->  8         0.28257
       5 ->  9         0.33708

 Excited State   6:      Singlet-A     13.1086 eV   94.58 nm  f=0.0000  <S**2>=0.000
       3 ->  7        -0.14410
       3 ->  9         0.46215
       4 ->  7        -0.38902
       4 ->  8        -0.29326

 Excited State   7:      Singlet-A     13.3128 eV   93.13 nm  f=0.0000  <S**2>=0.000
       3 ->  7        -0.17432
       3 ->  8         0.25134
       3 ->  9        -0.25903
       4 ->  7        -0.22898
       4 ->  8         0.14485
       4 ->  9         0.20543
       5 ->  7         0.37899
       5 ->  9         0.27312

 Excited State   8:      Singlet-A     13.3128 eV   93.13 nm  f=0.0000  <S**2>=0.000
       3 ->  7         0.13958
       3 ->  8         0.38263
       4 ->  7         0.20382
       4 ->  8        -0.19545
       4 ->  9        -0.36734
       5 ->  7         0.20655
       5 ->  8         0.24644

 Excited State   9:      Singlet-A     13.4312 eV   92.31 nm  f=0.3452  <S**2>=0.000
       3 ->  7        -0.19797
       4 ->  8         0.28547
       4 ->  9        -0.26990
       5 ->  7        -0.24504
       5 ->  8         0.39859
       5 ->  9         0.19522
       5 -> 11        -0.10800

 Excited State  10:      Singlet-A     13.4313 eV   92.31 nm  f=0.3452  <S**2>=0.000
       3 ->  7         0.42971
       3 -> 12        -0.10265
       4 ->  7        -0.13164
       4 ->  8         0.14388
       4 ->  9        -0.20262
       5 ->  8        -0.25035
       5 ->  9         0.35056

 Excited State  11:      Singlet-A     13.4313 eV   92.31 nm  f=0.3452  <S**2>=0.000
       3 ->  7        -0.13357
       3 ->  8         0.20512
       3 ->  9         0.40480
       3 -> 11        -0.10178
       4 ->  7         0.35982
       4 ->  8         0.28674
       4 ->  9         0.11175

 Excited State  12:      Singlet-A     13.7509 eV   90.16 nm  f=0.0000  <S**2>=0.000
       3 ->  7         0.31632
       3 ->  8         0.18519
       3 -> 12         0.14457
       4 ->  7        -0.13313
       4 ->  8         0.11533
       4 ->  9         0.32760
       4 -> 11         0.13122
       5 ->  7        -0.14341
       5 ->  8         0.30119
       5 ->  9        -0.16432
       5 -> 10         0.15035

 Excited State  13:      Singlet-A     14.9185 eV   83.11 nm  f=0.0000  <S**2>=0.000
       3 -> 10         0.38652
       4 -> 11         0.25732
       4 -> 12        -0.23836
       5 -> 10        -0.28996
       5 -> 11         0.18087
       5 -> 12         0.31799

 Excited State  14:      Singlet-A     14.9185 eV   83.11 nm  f=0.0000  <S**2>=0.000
       3 -> 10        -0.24879
       3 -> 11        -0.25869
       3 -> 12        -0.21441
       4 -> 10        -0.11319
       4 -> 11         0.38244
       4 -> 12        -0.22361
       5 -> 10        -0.15435
       5 -> 11        -0.13760
       5 -> 12        -0.26817

 Excited State  15:      Singlet-A     15.1251 eV   81.97 nm  f=0.0000  <S**2>=0.000
       4 -> 10         0.45547
       4 -> 11         0.18423
       5 -> 10         0.19645
       5 -> 11        -0.38441
       5 -> 12         0.24813

 Excited State  16:      Singlet-A     15.1251 eV   81.97 nm  f=0.0000  <S**2>=0.000
       3 -> 10         0.46247
       3 -> 11         0.17105
       5 -> 11        -0.25595
       5 -> 12        -0.42497

 Excited State  17:      Singlet-A     15.1252 eV   81.97 nm  f=0.0000  <S**2>=0.000
       3 -> 10         0.18128
       3 -> 11        -0.40468
       3 -> 12         0.22643
       4 -> 11         0.23480
       4 -> 12         0.43811

 Excited State  18:      Singlet-A     15.6723 eV   79.11 nm  f=0.2259  <S**2>=0.000
       4 -> 10         0.44749
       5 -> 11         0.43180
       5 -> 12        -0.23497

 Excited State  19:      Singlet-A     15.6724 eV   79.11 nm  f=0.2259  <S**2>=0.000
       3 ->  7        -0.10106
       3 -> 10         0.14190
       3 -> 11        -0.19963
       3 -> 12        -0.39923
       4 -> 10        -0.16456
       5 -> 10         0.43777
       5 -> 12         0.11371

 Excited State  20:      Singlet-A     15.6725 eV   79.11 nm  f=0.2259  <S**2>=0.000
       3 -> 10        -0.12212
       3 -> 11         0.37674
       3 -> 12        -0.26778
       4 -> 11         0.27818
       4 -> 12         0.38226

 Excited State  21:      Singlet-A     16.6368 eV   74.52 nm  f=0.0000  <S**2>=0.000
       3 ->  7        -0.13109
       3 -> 11         0.17288
       3 -> 12         0.32382
       4 ->  9        -0.13578
       4 -> 10        -0.14629
       4 -> 11         0.29387
       4 -> 12        -0.16527
       5 ->  8        -0.12486
       5 -> 10         0.33662
       5 -> 11         0.13721

 Excited State  22:      Singlet-A     20.1848 eV   61.42 nm  f=0.0000  <S**2>=0.000
       2 ->  6         0.67707
       5 -> 14         0.10818

 Excited State  23:      Singlet-A     20.3998 eV   60.78 nm  f=0.0333  <S**2>=0.000
       5 -> 13         0.69664

 Excited State  24:      Singlet-A     20.3999 eV   60.78 nm  f=0.0333  <S**2>=0.000
       4 -> 13         0.69643

 Excited State  25:      Singlet-A     20.4000 eV   60.78 nm  f=0.0333  <S**2>=0.000
       3 -> 13         0.69644

 Excited State  26:      Singlet-A     21.9721 eV   56.43 nm  f=0.0101  <S**2>=0.000
       2 ->  7         0.58037
       2 ->  8        -0.36562

 Excited State  27:      Singlet-A     21.9721 eV   56.43 nm  f=0.0101  <S**2>=0.000
       2 ->  7         0.36506
       2 ->  8         0.53527
       2 ->  9        -0.23546

 Excited State  28:      Singlet-A     21.9721 eV   56.43 nm  f=0.0101  <S**2>=0.000
       2 ->  8         0.23459
       2 ->  9         0.64426

 Excited State  29:      Singlet-A     22.1683 eV   55.93 nm  f=0.0000  <S**2>=0.000
       3 -> 14        -0.31820
       4 -> 14         0.35073
       4 -> 15         0.11435
       5 -> 14        -0.15130
       5 -> 15         0.46715

 Excited State  30:      Singlet-A     22.1685 eV   55.93 nm  f=0.0000  <S**2>=0.000
       3 -> 14         0.36444
       3 -> 16        -0.13258
       4 -> 14         0.33695
       4 -> 16         0.12112
       5 -> 16         0.45716

 Excited State  31:      Singlet-A     22.1686 eV   55.93 nm  f=0.0000  <S**2>=0.000
       3 -> 15         0.31347
       3 -> 16         0.36572
       4 -> 15         0.38379
       4 -> 16        -0.28549
       5 -> 16         0.17849

 Excited State  32:      Singlet-A     22.3731 eV   55.42 nm  f=0.0000  <S**2>=0.000
       3 -> 14         0.35994
       3 -> 15         0.11317
       3 -> 16         0.12379
       4 -> 14         0.19585
       4 -> 15        -0.21562
       4 -> 16        -0.18860
       5 -> 14        -0.29146
       5 -> 15         0.14308
       5 -> 16        -0.33419

 Excited State  33:      Singlet-A     22.3732 eV   55.42 nm  f=0.0000  <S**2>=0.000
       3 -> 14         0.21248
       3 -> 15         0.30419
       3 -> 16        -0.18701
       4 -> 14        -0.16625
       4 -> 15         0.25248
       4 -> 16         0.34391
       5 -> 15         0.30663
       5 -> 16        -0.11957

 Excited State  34:      Singlet-A     22.9225 eV   54.09 nm  f=0.0155  <S**2>=0.000
       3 -> 19         0.18818
       4 -> 14         0.37010
       4 -> 15         0.22754
       5 -> 14         0.24398
       5 -> 15        -0.21725
       5 -> 16        -0.31380
       5 -> 17        -0.18875
       5 -> 18         0.10473

 Excited State  35:      Singlet-A     22.9226 eV   54.09 nm  f=0.0155  <S**2>=0.000
       3 -> 14         0.18692
       3 -> 15        -0.27193
       3 -> 16         0.30433
       4 -> 17        -0.19010
       4 -> 18        -0.21992
       5 -> 14         0.36005
       5 -> 15         0.25437

 Excited State  36:      Singlet-A     22.9227 eV   54.09 nm  f=0.0155  <S**2>=0.000
       3 -> 14        -0.16736
       3 -> 15         0.27937
       3 -> 16         0.30788
       3 -> 17        -0.18826
       3 -> 18         0.11327
       4 -> 15        -0.28237
       4 -> 16         0.33065
       5 -> 19         0.19580

 Excited State  37:      Singlet-A     23.8639 eV   51.95 nm  f=0.0884  <S**2>=0.000
       2 -> 10         0.57202
       2 -> 11        -0.34769
       2 -> 12        -0.17427

 Excited State  38:      Singlet-A     23.8639 eV   51.95 nm  f=0.0884  <S**2>=0.000
       2 -> 10         0.38762
       2 -> 11         0.53498
       2 -> 12         0.20496

 Excited State  39:      Singlet-A     23.8639 eV   51.95 nm  f=0.0884  <S**2>=0.000
       2 -> 11        -0.26716
       2 -> 12         0.63725

 Excited State  40:      Singlet-A     24.3915 eV   50.83 nm  f=0.0639  <S**2>=0.000
       3 -> 17        -0.13449
       3 -> 19         0.10237
       5 -> 17         0.64817

 Excited State  41:      Singlet-A     24.3916 eV   50.83 nm  f=0.0639  <S**2>=0.000
       3 -> 17        -0.39933
       4 -> 17         0.51649
       4 -> 18        -0.10008
       5 -> 17        -0.11818

 Excited State  42:      Singlet-A     24.3916 eV   50.83 nm  f=0.0639  <S**2>=0.000
       3 -> 17         0.51248
       4 -> 17         0.41407

 Excited State  43:      Singlet-A     24.8310 eV   49.93 nm  f=0.0000  <S**2>=0.000
       2 ->  6        -0.18035
       2 -> 13        -0.10406
       3 -> 15         0.28073
       3 -> 16        -0.23317
       4 -> 15        -0.21989
       4 -> 16        -0.29256
       5 -> 14         0.35642
       5 -> 15         0.11370

 Excited State  44:      Singlet-A     24.8765 eV   49.84 nm  f=0.0000  <S**2>=0.000
       3 -> 19        -0.30853
       4 -> 19         0.31218
       5 -> 18         0.54613

 Excited State  45:      Singlet-A     24.8767 eV   49.84 nm  f=0.0000  <S**2>=0.000
       3 -> 18         0.57457
       3 -> 19        -0.22403
       5 -> 19        -0.32893

 Excited State  46:      Singlet-A     24.8768 eV   49.84 nm  f=0.0000  <S**2>=0.000
       3 -> 19         0.12517
       4 -> 18         0.18036
       4 -> 19         0.60146
       5 -> 18        -0.27053
       5 -> 19         0.12932

 Excited State  47:      Singlet-A     27.1075 eV   45.74 nm  f=1.1438  <S**2>=0.000
       3 -> 15        -0.14817
       3 -> 18         0.24158
       4 -> 16        -0.10645
       4 -> 18         0.30581
       4 -> 19        -0.14100
       5 -> 19         0.45761

 Excited State  48:      Singlet-A     27.1076 eV   45.74 nm  f=1.1438  <S**2>=0.000
       3 -> 16         0.16142
       3 -> 18        -0.20267
       4 -> 18         0.51946
       5 -> 14         0.13835
       5 -> 19        -0.27144

 Excited State  49:      Singlet-A     27.1078 eV   45.74 nm  f=1.1438  <S**2>=0.000
       3 -> 18         0.16391
       3 -> 19         0.51375
       4 -> 14        -0.14570
       5 -> 16         0.12164
       5 -> 18         0.29711
       5 -> 19        -0.10430

 Excited State  50:      Singlet-A     29.4126 eV   42.15 nm  f=0.0000  <S**2>=0.000
       2 -> 13         0.68395
       2 -> 17         0.11554

 Excited State  51:      Singlet-A     31.2716 eV   39.65 nm  f=0.0037  <S**2>=0.000
       2 -> 14         0.68265
       2 -> 15        -0.13159

 Excited State  52:      Singlet-A     31.2717 eV   39.65 nm  f=0.0037  <S**2>=0.000
       2 -> 14         0.12663
       2 -> 15         0.68733

 Excited State  53:      Singlet-A     31.2718 eV   39.65 nm  f=0.0037  <S**2>=0.000
       2 -> 16         0.69364

 Excited State  54:      Singlet-A     32.8650 eV   37.73 nm  f=0.0000  <S**2>=0.000
       2 -> 17         0.66896
       3 -> 20         0.11348
       4 -> 21        -0.11282
       5 -> 22         0.11227

 Excited State  55:      Singlet-A     34.0292 eV   36.43 nm  f=0.0000  <S**2>=0.000
       2 -> 18         0.69867

 Excited State  56:      Singlet-A     34.0292 eV   36.43 nm  f=0.0000  <S**2>=0.000
       2 -> 19         0.69866

 Excited State  57:      Singlet-A     34.2104 eV   36.24 nm  f=0.0000  <S**2>=0.000
       3 -> 20        -0.12260
       3 -> 22         0.38209
       4 -> 21        -0.32131
       5 -> 20         0.42746
       5 -> 22        -0.19102

 Excited State  58:      Singlet-A     34.2105 eV   36.24 nm  f=0.0000  <S**2>=0.000
       3 -> 20         0.25898
       3 -> 22         0.31071
       4 -> 21         0.46557
       5 -> 20         0.24210
       5 -> 22         0.21208

 Excited State  59:      Singlet-A     34.2700 eV   36.18 nm  f=0.0000  <S**2>=0.000
       3 -> 22        -0.33858
       4 -> 22         0.34980
       5 -> 20         0.30144
       5 -> 21         0.38118
       5 -> 22         0.11351

 Excited State  60:      Singlet-A     34.2702 eV   36.18 nm  f=0.0000  <S**2>=0.000
       3 -> 21         0.35860
       3 -> 22        -0.21200
       4 -> 20         0.34701
       4 -> 22        -0.22159
       5 -> 20         0.29899
       5 -> 21        -0.24612

 Excited State  61:      Singlet-A     34.2702 eV   36.18 nm  f=0.0000  <S**2>=0.000
       3 -> 21         0.33644
       3 -> 22         0.29261
       4 -> 20         0.35316
       4 -> 22         0.26645
       5 -> 20        -0.25256
       5 -> 21         0.18794

 Excited State  62:      Singlet-A     35.3325 eV   35.09 nm  f=0.0000  <S**2>=0.000
       2 -> 13         0.10870
       2 -> 17        -0.16409
       3 -> 20         0.37354
       4 -> 21        -0.37160
       5 -> 22         0.37000

 Excited State  63:      Singlet-A     35.3819 eV   35.04 nm  f=0.1907  <S**2>=0.000
       3 -> 20         0.25433
       4 -> 20         0.15455
       4 -> 22        -0.34851
       5 -> 21         0.40975
       5 -> 22        -0.30496

 Excited State  64:      Singlet-A     35.3820 eV   35.04 nm  f=0.1907  <S**2>=0.000
       3 -> 20         0.40983
       4 -> 22         0.31995
       5 -> 21        -0.25260
       5 -> 22        -0.37270

 Excited State  65:      Singlet-A     35.3820 eV   35.04 nm  f=0.1907  <S**2>=0.000
       3 -> 21         0.48332
       4 -> 20        -0.45951
       4 -> 22        -0.12439

 Excited State  66:      Singlet-A     43.0747 eV   28.78 nm  f=0.0394  <S**2>=0.000
       2 -> 20         0.70232

 Excited State  67:      Singlet-A     43.0748 eV   28.78 nm  f=0.0394  <S**2>=0.000
       2 -> 21         0.70232

 Excited State  68:      Singlet-A     43.0749 eV   28.78 nm  f=0.0394  <S**2>=0.000
       2 -> 22         0.70495

 Excited State  69:      Singlet-A     48.5080 eV   25.56 nm  f=0.0018  <S**2>=0.000
       3 -> 23         0.10808
       3 -> 26         0.14823
       4 -> 23        -0.15130
       4 -> 24         0.42095
       5 -> 23         0.29281
       5 -> 24        -0.10825
       5 -> 25         0.38539

 Excited State  70:      Singlet-A     48.5081 eV   25.56 nm  f=0.0018  <S**2>=0.000
       3 -> 23         0.19461
       3 -> 25        -0.19547
       3 -> 26         0.37711
       4 -> 23        -0.21952
       4 -> 24        -0.10882
       4 -> 26        -0.20619
       5 -> 23        -0.18498
       5 -> 24        -0.32911
       5 -> 25        -0.16744

 Excited State  71:      Singlet-A     48.5082 eV   25.56 nm  f=0.0018  <S**2>=0.000
       3 -> 23        -0.26631
       3 -> 25         0.37656
       3 -> 26         0.15946
       4 -> 23        -0.22210
       4 -> 26         0.35708
       5 -> 24        -0.24656

 Excited State  72:      Singlet-A     49.0361 eV   25.28 nm  f=0.0000  <S**2>=0.000
       3 -> 24         0.33695
       3 -> 26        -0.14126
       4 -> 25         0.36813
       4 -> 26        -0.13387
       5 -> 24        -0.23906
       5 -> 25         0.10555
       5 -> 26         0.35633

 Excited State  73:      Singlet-A     49.0361 eV   25.28 nm  f=0.0000  <S**2>=0.000
       3 -> 24        -0.35100
       3 -> 25        -0.10024
       3 -> 26        -0.23706
       4 -> 25         0.40636
       5 -> 24        -0.16685
       5 -> 26        -0.31396

 Excited State  74:      Singlet-A     49.1072 eV   25.25 nm  f=0.0000  <S**2>=0.000
       4 -> 24         0.48688
       4 -> 25         0.10634
       5 -> 24         0.10620
       5 -> 25        -0.48314

 Excited State  75:      Singlet-A     49.1074 eV   25.25 nm  f=0.0000  <S**2>=0.000
       3 -> 24         0.49260
       5 -> 26        -0.49016

 Excited State  76:      Singlet-A     49.1075 eV   25.25 nm  f=0.0000  <S**2>=0.000
       3 -> 25        -0.49184
       4 -> 26         0.49219

 Excited State  77:      Singlet-A     49.2872 eV   25.16 nm  f=0.0143  <S**2>=0.000
       4 -> 24        -0.22708
       5 -> 23         0.60750
       5 -> 25        -0.23715

 Excited State  78:      Singlet-A     49.2874 eV   25.16 nm  f=0.0143  <S**2>=0.000
       3 -> 26         0.23180
       4 -> 23         0.60398
       5 -> 24        -0.22815

 Excited State  79:      Singlet-A     49.2875 eV   25.16 nm  f=0.0143  <S**2>=0.000
       3 -> 23         0.60722
       3 -> 25         0.23646
       4 -> 26         0.23583

 Excited State  80:      Singlet-A     50.7674 eV   24.42 nm  f=0.0000  <S**2>=0.000
       3 -> 28        -0.13431
       3 -> 29         0.12663
       4 -> 27        -0.41433
       4 -> 29         0.14122
       5 -> 27        -0.21080
       5 -> 28         0.44120
       5 -> 29         0.15089

 Excited State  81:      Singlet-A     50.7674 eV   24.42 nm  f=0.0000  <S**2>=0.000
       3 -> 28         0.37993
       3 -> 29        -0.22358
       4 -> 27        -0.27803
       4 -> 29        -0.27608
       5 -> 27         0.32398
       5 -> 28         0.16765

 Excited State  82:      Singlet-A     50.7678 eV   24.42 nm  f=0.0000  <S**2>=0.000
       3 -> 28         0.26935
       3 -> 29         0.43652
       4 -> 28         0.14237
       4 -> 29        -0.33370
       5 -> 27        -0.30676

 Excited State  83:      Singlet-A     50.9070 eV   24.36 nm  f=0.0000  <S**2>=0.000
       3 -> 29         0.39236
       4 -> 28        -0.39059
       5 -> 27         0.39496

 Excited State  84:      Singlet-A     51.0562 eV   24.28 nm  f=0.0000  <S**2>=0.000
       3 -> 27         0.37786
       3 -> 29        -0.11477
       4 -> 28        -0.28542
       4 -> 29        -0.16588
       5 -> 27        -0.19630
       5 -> 28        -0.16651
       5 -> 29         0.38718

 Excited State  85:      Singlet-A     51.0562 eV   24.28 nm  f=0.0000  <S**2>=0.000
       3 -> 27         0.30970
       3 -> 28        -0.13142
       3 -> 29         0.22856
       4 -> 28         0.44307
       4 -> 29         0.12215
       5 -> 27         0.20738
       5 -> 29         0.25209

 Excited State  86:      Singlet-A     51.1166 eV   24.26 nm  f=0.1716  <S**2>=0.000
       3 -> 27         0.20760
       4 -> 27         0.44832
       5 -> 28         0.47279

 Excited State  87:      Singlet-A     51.1170 eV   24.25 nm  f=0.1716  <S**2>=0.000
       3 -> 27         0.39128
       3 -> 28         0.21597
       4 -> 27        -0.16642
       4 -> 29         0.31228
       5 -> 28        -0.11978
       5 -> 29        -0.37951

 Excited State  88:      Singlet-A     51.1172 eV   24.25 nm  f=0.1716  <S**2>=0.000
       3 -> 27        -0.21308
       3 -> 28         0.42394
       3 -> 29         0.14172
       4 -> 29         0.37252
       5 -> 29         0.29425

 Excited State  89:      Singlet-A     52.1950 eV   23.75 nm  f=0.0000  <S**2>=0.000
       2 -> 23         0.14289
       3 -> 26         0.38832
       4 -> 25         0.38237
       5 -> 24         0.38153

 Excited State  90:      Singlet-A     57.5514 eV   21.54 nm  f=0.1131  <S**2>=0.000
       2 -> 24         0.70552

 Excited State  91:      Singlet-A     57.5516 eV   21.54 nm  f=0.1131  <S**2>=0.000
       2 -> 25         0.70452

 Excited State  92:      Singlet-A     57.5519 eV   21.54 nm  f=0.1131  <S**2>=0.000
       2 -> 26         0.70449

 The electronic state is 1-A.
 Alpha  occ. eigenvalues --  -10.26293  -0.79169  -0.47687  -0.47686  -0.47686
 Alpha virt. eigenvalues --    0.12902   0.20431   0.20431   0.20431   0.28249
 Alpha virt. eigenvalues --    0.28249   0.28249   0.46888   0.55441   0.55441
 Alpha virt. eigenvalues --    0.55441   0.61355   0.67331   0.67331   1.01196

 Mulliken charges:
               1
     1  C   -0.485961
     2  H    0.121491
     3  H    0.121489
     4  H    0.121491
     5  H    0.121490
 Sum of Mulliken charges =  -0.00000

 Dipole moment (field-independent basis, Debye):
    X=              0.0000    Y=             -0.0000    Z=              0.0000  Tot=              0.0000
 Quadrupole moment (field-independent basis, Debye-Ang):
   XX=             -8.3775   YY=             -8.3775   ZZ=             -8.3776
   XY=             -0.0000   XZ=              0.0000   YZ=             -0.0000

 1\1\GINC-HEL18\SP\RwB97XD TD-FC\def2TZVP\C1H4\PRAKRITI\14-Aug-2021\0\\
 #P TD(Nstates=10000) wB97XD/def2TZVP SCF(maxcycles=100) Int(Grid=ultra
 fine)\\xGDB7_00001_tier4.com\\0,1\C,0,0.000001,0.000006,0.\H,0,0.98523
 3,0.46299,-0.028035\H,0,-0.05618,-0.682943,0.846305\H,0,-0.168125,-0.5
 51911,-0.923536\H,0,-0.760937,0.771825,0.105269\\Version=EM64L-G16RevC
 .01\State=1-A\HF=-40.5192768\RMSD=3.047e-09\PG=C01 [X(C1H4)]\\@
 The archive entry for this job was punched.

 Normal termination of Gaussian 16 at Sat Aug 14 06:22:12 2021.
