 Gaussian 16, Revision C.01,
 Gaussian 16:  EM64L-G16RevC.01  3-Jul-2019

 ----------------------------------------------------------------------
 #P TD(Nstates=10000) wB97XD/def2TZVP SCF(maxcycles=100) Int(Grid=ultra
 fine)
 ----------------------------------------------------------------------

 ---------------------
 xGDB7_00001_tier4.com
 ---------------------
 Symbolic Z-matrix:
 Charge =  0 Multiplicity = 1

                         Standard orientation:
 ---------------------------------------------------------------------
 Center     Atomic      Atomic             Coordinates (Angstroms)
 Number     Number       Type             X           Y           Z
 ---------------------------------------------------------------------
      1          9           0        0.000000    0.000000    0.688193
      2          9           0        0.000000    0.000000   -0.688193
 ---------------------------------------------------------------------

 SCF Done:  E(RwB97XD) =  -199.542130933     A.U. after   10 cycles

 Excitation energies and oscillator strengths:

 Excited state symmetry could not be determined.
 Excited State   1:      Singlet-?Sym    4.9444 eV  250.76 nm  f=0.0000  <S**2>=0.000
       8 -> 10         0.63654
       9 -> 10        -0.31098
 This state for optimization and/or second-order correction.
 Total Energy, E(TD-HF/TD-DFT) =  -199.360428110
 Copying the excited state density for this state as the 1-particle RhoCI density.

 Excited state symmetry could not be determined.
 Excited State   2:      Singlet-?Sym    4.9444 eV  250.76 nm  f=0.0000  <S**2>=0.000
       8 -> 10         0.31098
       9 -> 10         0.63654

 Excited state symmetry could not be determined.
 Excited State   3:      Singlet-?Sym    8.8676 eV  139.82 nm  f=0.0000  <S**2>=0.000
       6 -> 10         0.60222
       7 -> 10        -0.37035

 Excited state symmetry could not be determined.
 Excited State   4:      Singlet-?Sym    8.8676 eV  139.82 nm  f=0.0000  <S**2>=0.000
       6 -> 10         0.37035
       7 -> 10         0.60222

 Excited State   5:      Singlet-SGU   14.8658 eV   83.40 nm  f=0.7879  <S**2>=0.000
       5 -> 10         0.67884
       8 -> 14         0.14252
       9 -> 13         0.14252
       5 <- 10        -0.10019

 Excited state symmetry could not be determined.
 Excited State   6:      Singlet-?Sym   21.5540 eV   57.52 nm  f=0.0000  <S**2>=0.000
       6 -> 12         0.10432
       9 -> 11         0.69604

 Excited state symmetry could not be determined.
 Excited State   7:      Singlet-?Sym   21.5540 eV   57.52 nm  f=0.0000  <S**2>=0.000
       7 -> 12         0.10432
       8 -> 11         0.69604

 Excited state symmetry could not be determined.
 Excited State   8:      Singlet-?Sym   22.1986 eV   55.85 nm  f=0.0807  <S**2>=0.000
       6 -> 11         0.12872
       9 -> 12         0.68860

 Excited state symmetry could not be determined.
 Excited State   9:      Singlet-?Sym   22.1986 eV   55.85 nm  f=0.0807  <S**2>=0.000
       7 -> 11         0.12872
       8 -> 12         0.68860

 Excited state symmetry could not be determined.
 Excited State  10:      Singlet-?Sym   22.7928 eV   54.40 nm  f=0.0000  <S**2>=0.000
       8 -> 14        -0.49653
       9 -> 13         0.49653

 Excited state symmetry could not be determined.
 Excited State  11:      Singlet-?Sym   22.7929 eV   54.40 nm  f=0.0000  <S**2>=0.000
       8 -> 13         0.49653
       9 -> 14         0.49653

 Excited state symmetry could not be determined.
 Excited State  12:      Singlet-?Sym   22.9063 eV   54.13 nm  f=0.0000  <S**2>=0.000
       8 -> 13         0.49752
       9 -> 14        -0.49752

 Excited state symmetry could not be determined.
 Excited State  13:      Singlet-?Sym   25.0130 eV   49.57 nm  f=0.1320  <S**2>=0.000
       3 -> 10        -0.11084
       5 -> 10        -0.15252
       5 -> 12        -0.30504
       8 -> 14         0.42947
       9 -> 13         0.42947

 Excited state symmetry could not be determined.
 Excited State  14:      Singlet-?Sym   25.2104 eV   49.18 nm  f=0.0000  <S**2>=0.000
       7 -> 12         0.36231
       8 -> 15         0.59946

 Excited state symmetry could not be determined.
 Excited State  15:      Singlet-?Sym   25.2104 eV   49.18 nm  f=0.0000  <S**2>=0.000
       6 -> 12         0.36231
       9 -> 15         0.59946

 Excited state symmetry could not be determined.
 Excited State  16:      Singlet-?Sym   25.5845 eV   48.46 nm  f=0.0000  <S**2>=0.000
       6 -> 13         0.31118
       7 -> 14        -0.31118
       8 -> 17        -0.39138
       9 -> 16         0.39138

 Excited state symmetry could not be determined.
 Excited State  17:      Singlet-?Sym   25.5846 eV   48.46 nm  f=0.0000  <S**2>=0.000
       6 -> 14         0.31117
       7 -> 13         0.31117
       8 -> 16         0.39140
       9 -> 17         0.39140

 Excited State  18:      Singlet-SGG   25.5906 eV   48.45 nm  f=0.0000  <S**2>=0.000
       4 -> 10         0.61714
       5 -> 11         0.27463
       8 -> 17        -0.13322
       9 -> 16        -0.13322

 Excited state symmetry could not be determined.
 Excited State  19:      Singlet-?Sym   25.7814 eV   48.09 nm  f=0.2078  <S**2>=0.000
       6 -> 11         0.59398
       7 -> 11        -0.35327
       9 -> 12        -0.10351

 Excited state symmetry could not be determined.
 Excited State  20:      Singlet-?Sym   25.7814 eV   48.09 nm  f=0.2078  <S**2>=0.000
       6 -> 11         0.35327
       7 -> 11         0.59398
       8 -> 12        -0.10351

 Excited state symmetry could not be determined.
 Excited State  21:      Singlet-?Sym   25.8677 eV   47.93 nm  f=0.0000  <S**2>=0.000
       6 -> 14        -0.29328
       7 -> 13         0.29328
       8 -> 16         0.40490
       9 -> 17        -0.40490

 Excited state symmetry could not be determined.
 Excited State  22:      Singlet-?Sym   26.9501 eV   46.01 nm  f=0.0000  <S**2>=0.000
       7 -> 12         0.59273
       8 -> 11        -0.11023
       8 -> 15        -0.36202

 Excited state symmetry could not be determined.
 Excited State  23:      Singlet-?Sym   26.9501 eV   46.01 nm  f=0.0000  <S**2>=0.000
       6 -> 12         0.59273
       9 -> 11        -0.11023
       9 -> 15        -0.36202

 Excited state symmetry could not be determined.
 Excited State  24:      Singlet-?Sym   27.0792 eV   45.79 nm  f=0.0000  <S**2>=0.000
       5 -> 11        -0.25653
       6 -> 13         0.33483
       7 -> 14         0.33483
       8 -> 17        -0.32278
       9 -> 16        -0.32278

 Excited state symmetry could not be determined.
 Excited State  25:      Singlet-?Sym   27.2300 eV   45.53 nm  f=0.0000  <S**2>=0.000
       6 -> 14         0.39140
       7 -> 13         0.39140
       8 -> 16        -0.31113
       9 -> 17        -0.31113

 Excited state symmetry could not be determined.
 Excited State  26:      Singlet-?Sym   27.2301 eV   45.53 nm  f=0.0000  <S**2>=0.000
       6 -> 13         0.39138
       7 -> 14        -0.39138
       8 -> 17         0.31114
       9 -> 16        -0.31114

 Excited state symmetry could not be determined.
 Excited State  27:      Singlet-?Sym   27.4163 eV   45.22 nm  f=0.0000  <S**2>=0.000
       6 -> 14        -0.40491
       7 -> 13         0.40491
       8 -> 16        -0.29329
       9 -> 17         0.29329

 Excited State  28:      Singlet-SGG   27.6132 eV   44.90 nm  f=0.0000  <S**2>=0.000
       4 -> 10        -0.31995
       5 -> 11         0.56204
       8 -> 17        -0.19147
       9 -> 16        -0.19147

 Excited state symmetry could not be determined.
 Excited State  29:      Singlet-?Sym   28.4389 eV   43.60 nm  f=0.0086  <S**2>=0.000
       5 -> 13         0.61624
       5 -> 14         0.34328

 Excited state symmetry could not be determined.
 Excited State  30:      Singlet-?Sym   28.4389 eV   43.60 nm  f=0.0086  <S**2>=0.000
       5 -> 13        -0.34328
       5 -> 14         0.61624

 Excited State  31:      Singlet-SGU   28.7782 eV   43.08 nm  f=0.0001  <S**2>=0.000
       5 -> 12         0.56870
       6 -> 16        -0.24160
       7 -> 17        -0.24160
       8 -> 14         0.15737
       9 -> 13         0.15737

 Excited State  32:      Singlet-SGG   29.4317 eV   42.13 nm  f=0.0000  <S**2>=0.000
       5 -> 11        -0.17340
       5 -> 15         0.43967
       6 -> 13        -0.29180
       7 -> 14        -0.29180
       8 -> 17        -0.22464
       9 -> 16        -0.22464

 Excited state symmetry could not be determined.
 Excited State  33:      Singlet-?Sym   29.7124 eV   41.73 nm  f=0.0660  <S**2>=0.000
       6 -> 15         0.66342
       7 -> 15        -0.21197

 Excited state symmetry could not be determined.
 Excited State  34:      Singlet-?Sym   29.7124 eV   41.73 nm  f=0.0660  <S**2>=0.000
       6 -> 15         0.21197
       7 -> 15         0.66342

 Excited state symmetry could not be determined.
 Excited State  35:      Singlet-?Sym   30.1954 eV   41.06 nm  f=0.0000  <S**2>=0.000
       6 -> 16         0.49651
       7 -> 17        -0.49651

 Excited state symmetry could not be determined.
 Excited State  36:      Singlet-?Sym   30.1954 eV   41.06 nm  f=0.0000  <S**2>=0.000
       6 -> 17         0.49651
       7 -> 16         0.49651

 Excited state symmetry could not be determined.
 Excited State  37:      Singlet-?Sym   30.3897 eV   40.80 nm  f=0.0000  <S**2>=0.000
       6 -> 17        -0.49751
       7 -> 16         0.49751

 Excited State  38:      Singlet-SGU   31.2171 eV   39.72 nm  f=0.1028  <S**2>=0.000
       3 -> 10         0.41722
       5 -> 12        -0.22228
       6 -> 16        -0.36252
       7 -> 17        -0.36252

 Excited state symmetry could not be determined.
 Excited State  39:      Singlet-?Sym   31.7368 eV   39.07 nm  f=0.0000  <S**2>=0.000
       5 -> 16         0.70562

 Excited state symmetry could not be determined.
 Excited State  40:      Singlet-?Sym   31.7368 eV   39.07 nm  f=0.0000  <S**2>=0.000
       5 -> 17         0.70562

 Excited State  41:      Singlet-SGG   33.4373 eV   37.08 nm  f=0.0000  <S**2>=0.000
       4 -> 10         0.10589
       5 -> 11         0.11031
       5 -> 15         0.54743
       6 -> 13         0.21399
       7 -> 14         0.21399
       8 -> 17         0.19830
       9 -> 16         0.19830

 Excited state symmetry could not be determined.
 Excited State  42:      Singlet-?Sym   34.4205 eV   36.02 nm  f=0.1775  <S**2>=0.000
       8 -> 18         0.40667
       9 -> 18         0.57732

 Excited state symmetry could not be determined.
 Excited State  43:      Singlet-?Sym   34.4205 eV   36.02 nm  f=0.1775  <S**2>=0.000
       8 -> 18         0.57732
       9 -> 18        -0.40667

 Excited State  44:      Singlet-SGU   35.3638 eV   35.06 nm  f=0.0040  <S**2>=0.000
       3 -> 10         0.54335
       4 -> 11        -0.16455
       5 -> 10        -0.12454
       5 -> 12         0.16527
       6 -> 16         0.22538
       7 -> 17         0.22538
       8 -> 14         0.12622
       9 -> 13         0.12622

 Excited state symmetry could not be determined.
 Excited State  45:      Singlet-?Sym   38.1105 eV   32.53 nm  f=0.0000  <S**2>=0.000
       6 -> 18         0.69851
       7 -> 18        -0.10341

 Excited state symmetry could not be determined.
 Excited State  46:      Singlet-?Sym   38.1105 eV   32.53 nm  f=0.0000  <S**2>=0.000
       6 -> 18         0.10341
       7 -> 18         0.69851

 Excited State  47:      Singlet-SGU   39.9285 eV   31.05 nm  f=0.0213  <S**2>=0.000
       5 -> 18         0.69849

 Excited State  48:      Singlet-SGU   42.1046 eV   29.45 nm  f=0.0308  <S**2>=0.000
       3 -> 10         0.10038
       4 -> 11         0.67399

 Excited State  49:      Singlet-SGG   42.1866 eV   29.39 nm  f=0.0000  <S**2>=0.000
       4 -> 12         0.70152

 Excited state symmetry could not be determined.
 Excited State  50:      Singlet-?Sym   42.5335 eV   29.15 nm  f=0.0000  <S**2>=0.000
       4 -> 13         0.69959

 Excited state symmetry could not be determined.
 Excited State  51:      Singlet-?Sym   42.5335 eV   29.15 nm  f=0.0000  <S**2>=0.000
       4 -> 14         0.69959

 Excited State  52:      Singlet-SGU   45.0632 eV   27.51 nm  f=0.1118  <S**2>=0.000
       4 -> 15         0.69672

 Excited state symmetry could not be determined.
 Excited State  53:      Singlet-?Sym   45.7532 eV   27.10 nm  f=0.1225  <S**2>=0.000
       4 -> 16         0.68848
       4 -> 17         0.13836

 Excited state symmetry could not be determined.
 Excited State  54:      Singlet-?Sym   45.7532 eV   27.10 nm  f=0.1225  <S**2>=0.000
       4 -> 16        -0.13836
       4 -> 17         0.68848

 Excited State  55:      Singlet-SGG   48.7618 eV   25.43 nm  f=0.0000  <S**2>=0.000
       3 -> 11         0.70203

 Excited State  56:      Singlet-SGU   49.2017 eV   25.20 nm  f=0.0550  <S**2>=0.000
       3 -> 12         0.69496

 Excited state symmetry could not be determined.
 Excited State  57:      Singlet-?Sym   49.6311 eV   24.98 nm  f=0.0718  <S**2>=0.000
       3 -> 13         0.69712

 Excited state symmetry could not be determined.
 Excited State  58:      Singlet-?Sym   49.6311 eV   24.98 nm  f=0.0718  <S**2>=0.000
       3 -> 14         0.69712

 Excited state symmetry could not be determined.
 Excited State  59:      Singlet-?Sym   51.4459 eV   24.10 nm  f=0.0000  <S**2>=0.000
       8 -> 20        -0.49960
       9 -> 19         0.49960

 Excited state symmetry could not be determined.
 Excited State  60:      Singlet-?Sym   51.4459 eV   24.10 nm  f=0.0000  <S**2>=0.000
       8 -> 19         0.49960
       9 -> 20         0.49960

 Excited state symmetry could not be determined.
 Excited State  61:      Singlet-?Sym   51.5220 eV   24.06 nm  f=0.0000  <S**2>=0.000
       8 -> 19        -0.49968
       9 -> 20         0.49968

 Excited State  62:      Singlet-SGG   52.6042 eV   23.57 nm  f=0.0000  <S**2>=0.000
       3 -> 15         0.69974

 Excited state symmetry could not be determined.
 Excited State  63:      Singlet-?Sym   53.0022 eV   23.39 nm  f=0.0000  <S**2>=0.000
       3 -> 16         0.69749

 Excited state symmetry could not be determined.
 Excited State  64:      Singlet-?Sym   53.0022 eV   23.39 nm  f=0.0000  <S**2>=0.000
       3 -> 17         0.69749

 Excited State  65:      Singlet-SGG   54.0778 eV   22.93 nm  f=0.0000  <S**2>=0.000
       4 -> 18         0.70247

 Excited state symmetry could not be determined.
 Excited State  66:      Singlet-?Sym   54.9726 eV   22.55 nm  f=1.9502  <S**2>=0.000
       8 -> 20         0.48763
       9 -> 19         0.48763

 Excited state symmetry could not be determined.
 Excited State  67:      Singlet-?Sym   55.3967 eV   22.38 nm  f=0.0000  <S**2>=0.000
       6 -> 20        -0.49944
       7 -> 19         0.49944

 Excited state symmetry could not be determined.
 Excited State  68:      Singlet-?Sym   55.4013 eV   22.38 nm  f=0.0000  <S**2>=0.000
       6 -> 19         0.49951
       7 -> 20        -0.49951

 Excited state symmetry could not be determined.
 Excited State  69:      Singlet-?Sym   55.4013 eV   22.38 nm  f=0.0000  <S**2>=0.000
       6 -> 20         0.49951
       7 -> 19         0.49951

 Excited state symmetry could not be determined.
 Excited State  70:      Singlet-?Sym   57.0130 eV   21.75 nm  f=0.0000  <S**2>=0.000
       8 -> 21        -0.27641
       8 -> 22         0.41352
       9 -> 21         0.41354
       9 -> 22         0.27639

 Excited state symmetry could not be determined.
 Excited State  71:      Singlet-?Sym   57.0130 eV   21.75 nm  f=0.0000  <S**2>=0.000
       8 -> 21         0.41354
       8 -> 22         0.27639
       9 -> 21         0.27641
       9 -> 22        -0.41352

 Excited state symmetry could not be determined.
 Excited State  72:      Singlet-?Sym   57.5679 eV   21.54 nm  f=0.0406  <S**2>=0.000
       5 -> 19         0.54549
       5 -> 20         0.38681
       6 -> 21         0.11159
       7 -> 22        -0.11159

 Excited state symmetry could not be determined.
 Excited State  73:      Singlet-?Sym   57.5679 eV   21.54 nm  f=0.0406  <S**2>=0.000
       5 -> 19        -0.38681
       5 -> 20         0.54549
       6 -> 22        -0.11159
       7 -> 21        -0.11159

 Excited state symmetry could not be determined.
 Excited State  74:      Singlet-?Sym   58.6696 eV   21.13 nm  f=0.0000  <S**2>=0.000
       5 -> 25        -0.13224
       6 -> 19         0.48493
       7 -> 20         0.48493

 Excited state symmetry could not be determined.
 Excited State  75:      Singlet-?Sym   58.9622 eV   21.03 nm  f=0.0000  <S**2>=0.000
       8 -> 21         0.45464
       8 -> 22         0.17828
       8 -> 25         0.11060
       9 -> 21        -0.17827
       9 -> 22         0.45466

 Excited state symmetry could not be determined.
 Excited State  76:      Singlet-?Sym   58.9622 eV   21.03 nm  f=0.0000  <S**2>=0.000
       8 -> 21        -0.17827
       8 -> 22         0.45466
       9 -> 21        -0.45464
       9 -> 22        -0.17828
       9 -> 25         0.11060

 Excited state symmetry could not be determined.
 Excited State  77:      Singlet-?Sym   60.7188 eV   20.42 nm  f=0.0000  <S**2>=0.000
       6 -> 21        -0.23575
       6 -> 22        -0.41217
       7 -> 21         0.41217
       7 -> 22        -0.23574
       8 -> 23         0.13598
       9 -> 24        -0.13598

 Excited state symmetry could not be determined.
 Excited State  78:      Singlet-?Sym   60.7188 eV   20.42 nm  f=0.0000  <S**2>=0.000
       6 -> 21         0.41217
       6 -> 22        -0.23574
       7 -> 21         0.23575
       7 -> 22         0.41217
       8 -> 24         0.13598
       9 -> 23         0.13598

 Excited State  79:      Singlet-SGU   61.1525 eV   20.27 nm  f=0.0240  <S**2>=0.000
       3 -> 18         0.70252

 Excited state symmetry could not be determined.
 Excited State  80:      Singlet-?Sym   62.6300 eV   19.80 nm  f=0.0000  <S**2>=0.000
       5 -> 21         0.70675

 Excited state symmetry could not be determined.
 Excited State  81:      Singlet-?Sym   62.6300 eV   19.80 nm  f=0.0000  <S**2>=0.000
       5 -> 22         0.70675

 Excited state symmetry could not be determined.
 Excited State  82:      Singlet-?Sym   63.2724 eV   19.60 nm  f=0.2124  <S**2>=0.000
       5 -> 19        -0.10072
       6 -> 21         0.41551
       7 -> 22        -0.41551
       8 -> 24         0.26499
       9 -> 23        -0.26503

 Excited state symmetry could not be determined.
 Excited State  83:      Singlet-?Sym   63.2724 eV   19.60 nm  f=0.2124  <S**2>=0.000
       5 -> 20         0.10072
       6 -> 22         0.41551
       7 -> 21         0.41551
       8 -> 23        -0.26503
       9 -> 24        -0.26499

 Excited state symmetry could not be determined.
 Excited State  84:      Singlet-?Sym   64.2220 eV   19.31 nm  f=0.0000  <S**2>=0.000
       6 -> 21        -0.15542
       7 -> 22        -0.15545
       8 -> 24         0.47115
       9 -> 23         0.47114

 Excited state symmetry could not be determined.
 Excited State  85:      Singlet-?Sym   64.2220 eV   19.31 nm  f=0.0000  <S**2>=0.000
       6 -> 22        -0.15545
       7 -> 21         0.15542
       8 -> 23        -0.47114
       9 -> 24         0.47115

 Excited state symmetry could not be determined.
 Excited State  86:      Singlet-?Sym   65.3827 eV   18.96 nm  f=0.0000  <S**2>=0.000
       6 -> 23        -0.14368
       7 -> 24         0.14368
       9 -> 25         0.66534

 Excited state symmetry could not be determined.
 Excited State  87:      Singlet-?Sym   65.3827 eV   18.96 nm  f=0.0000  <S**2>=0.000
       6 -> 24         0.14368
       7 -> 23         0.14368
       8 -> 25         0.66534

 Excited state symmetry could not be determined.
 Excited State  88:      Singlet-?Sym   67.3579 eV   18.41 nm  f=1.0609  <S**2>=0.000
       5 -> 19         0.10908
       6 -> 21        -0.13016
       6 -> 25         0.38597
       7 -> 22         0.13016
       7 -> 25         0.26166
       8 -> 23         0.18115
       8 -> 24         0.26721
       9 -> 23        -0.26721
       9 -> 24         0.18115

 Excited state symmetry could not be determined.
 Excited State  89:      Singlet-?Sym   67.3579 eV   18.41 nm  f=1.0609  <S**2>=0.000
       5 -> 20         0.10908
       6 -> 22         0.13016
       6 -> 25        -0.26166
       7 -> 21         0.13016
       7 -> 25         0.38597
       8 -> 23         0.26721
       8 -> 24        -0.18115
       9 -> 23         0.18115
       9 -> 24         0.26721

 Excited state symmetry could not be determined.
 Excited State  90:      Singlet-?Sym   67.8643 eV   18.27 nm  f=0.0000  <S**2>=0.000
       6 -> 23         0.46136
       6 -> 24         0.18589
       7 -> 23        -0.18590
       7 -> 24         0.46134

 Excited state symmetry could not be determined.
 Excited State  91:      Singlet-?Sym   67.8643 eV   18.27 nm  f=0.0000  <S**2>=0.000
       6 -> 23         0.18590
       6 -> 24        -0.46134
       7 -> 23         0.46136
       7 -> 24         0.18589

 Excited state symmetry could not be determined.
 Excited State  92:      Singlet-?Sym   69.3405 eV   17.88 nm  f=0.0000  <S**2>=0.000
       5 -> 23         0.70576

 Excited state symmetry could not be determined.
 Excited State  93:      Singlet-?Sym   69.3406 eV   17.88 nm  f=0.0000  <S**2>=0.000
       5 -> 24         0.70576

 Excited state symmetry could not be determined.
 Excited State  94:      Singlet-?Sym   69.9508 eV   17.72 nm  f=0.0000  <S**2>=0.000
       4 -> 19        -0.31532
       6 -> 23        -0.40093
       6 -> 24         0.12380
       7 -> 23         0.12379
       7 -> 24         0.40095
       9 -> 25        -0.15944

 Excited state symmetry could not be determined.
 Excited State  95:      Singlet-?Sym   69.9508 eV   17.72 nm  f=0.0000  <S**2>=0.000
       4 -> 20        -0.31532
       6 -> 23         0.12379
       6 -> 24         0.40095
       7 -> 23         0.40093
       7 -> 24        -0.12380
       8 -> 25        -0.15944

 Excited state symmetry could not be determined.
 Excited State  96:      Singlet-?Sym   70.9355 eV   17.48 nm  f=1.8208  <S**2>=0.000
       5 -> 19        -0.11378
       6 -> 21         0.13218
       6 -> 22        -0.11454
       6 -> 25         0.39843
       7 -> 21        -0.11453
       7 -> 22        -0.13218
       7 -> 25         0.34523
       8 -> 23        -0.16637
       8 -> 24        -0.19201
       9 -> 23         0.19201
       9 -> 24        -0.16638

 Excited state symmetry could not be determined.
 Excited State  97:      Singlet-?Sym   70.9355 eV   17.48 nm  f=1.8208  <S**2>=0.000
       5 -> 20        -0.11378
       6 -> 21        -0.11453
       6 -> 22        -0.13218
       6 -> 25        -0.34523
       7 -> 21        -0.13218
       7 -> 22         0.11454
       7 -> 25         0.39843
       8 -> 23        -0.19201
       8 -> 24         0.16638
       9 -> 23        -0.16637
       9 -> 24        -0.19201

 Excited state symmetry could not be determined.
 Excited State  98:      Singlet-?Sym   71.7348 eV   17.28 nm  f=0.0000  <S**2>=0.000
       4 -> 19        -0.21707
       4 -> 20         0.58443
       6 -> 24         0.20259
       7 -> 23         0.20258

 Excited state symmetry could not be determined.
 Excited State  99:      Singlet-?Sym   71.7348 eV   17.28 nm  f=0.0000  <S**2>=0.000
       4 -> 19         0.58443
       4 -> 20         0.21707
       6 -> 23        -0.20258
       7 -> 24         0.20259

 Excited State 100:      Singlet-SGG   71.9767 eV   17.23 nm  f=0.0000  <S**2>=0.000
       5 -> 25         0.65384
       8 -> 27        -0.17423
       9 -> 26        -0.17423

 Excited state symmetry could not be determined.

 The electronic state is 1-SGG.
 Alpha  occ. eigenvalues --  -24.91802 -24.91800  -1.47247  -1.20425  -0.69923
 Alpha  occ. eigenvalues --   -0.64227  -0.64227  -0.49912  -0.49912
 Alpha virt. eigenvalues --   -0.04526   0.53335   0.55044   0.58613   0.58613
 Alpha virt. eigenvalues --    0.68710   0.70096   0.70096   0.99772   1.67134
 Alpha virt. eigenvalues --    1.67134   1.87226   1.87226   2.11847   2.11847

 Mulliken charges:
               1
     1  F   -0.000000
     2  F   -0.000000
 Sum of Mulliken charges =  -0.00000

 Dipole moment (field-independent basis, Debye):
    X=             -0.0000    Y=              0.0000    Z=              0.0000  Tot=              0.0000
 Quadrupole moment (field-independent basis, Debye-Ang):
   XX=             -9.5404   YY=             -9.5404   ZZ=             -8.8423
   XY=              0.0000   XZ=              0.0000   YZ=              0.0000

 Normal termination of Gaussian 16 at Sat Aug 14 06:19:59 2021.
