 Gaussian 16, Revision C.01,
 Gaussian 16:  EM64L-G16RevC.01  3-Jul-2019

 ----------------------------------------------------------------------
 #P TD(Nstates=10000) wB97XD/def2TZVP SCF(maxcycles=100) Int(Grid=ultra
 fine)
 ----------------------------------------------------------------------

 ---------------------
 xGDB7_00001_tier4.com
 ---------------------
 Symbolic Z-matrix:
 Charge =  0 Multiplicity = 1

                         Standard orientation:
 ---------------------------------------------------------------------
 Center     Atomic      Atomic             Coordinates (Angstroms)
 Number     Number       Type             X           Y           Z
 ---------------------------------------------------------------------
      1          7           0        1.106441    0.142513   -0.090982
      2          7           0       -0.080753   -0.512520    0.006066
      3          6           0       -1.148696    0.167456    0.008166
      4          1           0        1.854749   -0.409916    0.291533
      5          1           0        1.109676    1.100453    0.242713
      6          1           0       -2.089851   -0.366199    0.035249
      7          1           0       -1.162209    1.260974   -0.024080
 ---------------------------------------------------------------------

 SCF Done:  E(RwB97XD) =  -149.970821576     A.U. after   14 cycles

 Excitation energies and oscillator strengths:

 Excited State   1:      Singlet-A      5.8928 eV  210.40 nm  f=0.0098  <S**2>=0.000
      11 -> 13         0.67676
      12 -> 13         0.18462
 This state for optimization and/or second-order correction.
 Total Energy, E(TD-HF/TD-DFT) =  -149.754264174
 Copying the excited state density for this state as the 1-particle RhoCI density.

 Excited State   2:      Singlet-A      6.2331 eV  198.91 nm  f=0.2091  <S**2>=0.000
      11 -> 13        -0.17866
      12 -> 13         0.66468
      12 -> 14        -0.12032

 Excited State   3:      Singlet-A      6.9301 eV  178.91 nm  f=0.0328  <S**2>=0.000
      12 -> 13         0.11198
      12 -> 14         0.68883

 Excited State   4:      Singlet-A      8.0514 eV  153.99 nm  f=0.0070  <S**2>=0.000
      12 -> 15         0.68446
      12 -> 16        -0.12373

 Excited State   5:      Singlet-A      8.3644 eV  148.23 nm  f=0.0613  <S**2>=0.000
      11 -> 14         0.68991

 Excited State   6:      Singlet-A      8.7982 eV  140.92 nm  f=0.0229  <S**2>=0.000
      12 -> 16         0.61759
      12 -> 17         0.24841
      12 -> 18        -0.17642

 Excited State   7:      Singlet-A      9.3357 eV  132.81 nm  f=0.0120  <S**2>=0.000
       9 -> 13        -0.10525
      12 -> 16        -0.28862
      12 -> 17         0.51993
      12 -> 18        -0.29940

 Excited State   8:      Singlet-A      9.4171 eV  131.66 nm  f=0.0987  <S**2>=0.000
      10 -> 13         0.14963
      11 -> 15         0.67113
      12 -> 18        -0.10493

 Excited State   9:      Singlet-A      9.5609 eV  129.68 nm  f=0.0211  <S**2>=0.000
      12 -> 17         0.36146
      12 -> 18         0.58738

 Excited State  10:      Singlet-A      9.7888 eV  126.66 nm  f=0.0226  <S**2>=0.000
       9 -> 13         0.59047
      10 -> 13        -0.32670
      11 -> 15         0.10577
      12 -> 17         0.10332

 Excited State  11:      Singlet-A      9.9760 eV  124.28 nm  f=0.0367  <S**2>=0.000
      11 -> 16         0.67016
      11 -> 18        -0.17834

 Excited State  12:      Singlet-A     10.4671 eV  118.45 nm  f=0.1025  <S**2>=0.000
       9 -> 13         0.24709
      10 -> 13         0.39764
      11 -> 17         0.39909
      11 -> 18        -0.29800

 Excited State  13:      Singlet-A     10.5140 eV  117.92 nm  f=0.0209  <S**2>=0.000
       9 -> 13         0.20297
      10 -> 13         0.32476
      11 -> 16         0.18145
      11 -> 18         0.54562

 Excited State  14:      Singlet-A     10.7453 eV  115.39 nm  f=0.2563  <S**2>=0.000
       9 -> 13        -0.13561
      10 -> 13        -0.25664
      11 -> 17         0.56349
      11 -> 18         0.25793

 Excited State  15:      Singlet-A     11.3825 eV  108.93 nm  f=0.0483  <S**2>=0.000
      10 -> 14         0.66921
      12 -> 19         0.13844

 Excited State  16:      Singlet-A     11.6427 eV  106.49 nm  f=0.0856  <S**2>=0.000
       8 -> 13         0.12652
      10 -> 14        -0.15792
      12 -> 19         0.65797

 Excited State  17:      Singlet-A     12.1236 eV  102.27 nm  f=0.0247  <S**2>=0.000
       8 -> 13         0.65300
      12 -> 20         0.12748
      12 -> 21         0.11003

 Excited State  18:      Singlet-A     12.2889 eV  100.89 nm  f=0.0742  <S**2>=0.000
       9 -> 14         0.53849
       9 -> 15        -0.15148
      12 -> 20        -0.34710

 Excited State  19:      Singlet-A     12.4224 eV   99.81 nm  f=0.0387  <S**2>=0.000
       8 -> 13        -0.15117
       9 -> 14         0.24514
      10 -> 15         0.33000
      10 -> 18        -0.15325
      12 -> 19         0.12264
      12 -> 20         0.29541
      12 -> 21         0.37411

 Excited State  20:      Singlet-A     12.4783 eV   99.36 nm  f=0.1055  <S**2>=0.000
       9 -> 14         0.26658
      10 -> 15        -0.29741
      12 -> 20         0.44287
      12 -> 21        -0.26501

 Excited State  21:      Singlet-A     12.6180 eV   98.26 nm  f=0.0072  <S**2>=0.000
      10 -> 15         0.50210
      12 -> 21        -0.44277

 Excited State  22:      Singlet-A     12.7949 eV   96.90 nm  f=0.0329  <S**2>=0.000
       9 -> 14        -0.11780
      11 -> 19         0.66337

 Excited State  23:      Singlet-A     13.1836 eV   94.04 nm  f=0.0479  <S**2>=0.000
       9 -> 15        -0.10774
      10 -> 16         0.49986
      10 -> 17         0.17901
      10 -> 18        -0.13205
      11 -> 20        -0.35789
      12 -> 22         0.17998

 Excited State  24:      Singlet-A     13.2532 eV   93.55 nm  f=0.0280  <S**2>=0.000
       7 -> 13        -0.24424
       9 -> 15        -0.22560
      10 -> 16         0.23419
      11 -> 20         0.53839

 Excited State  25:      Singlet-A     13.3096 eV   93.15 nm  f=0.0726  <S**2>=0.000
       7 -> 14        -0.10296
       9 -> 15         0.55407
       9 -> 16         0.17068
      10 -> 16         0.17062
      10 -> 18        -0.10187
      11 -> 20         0.18581
      12 -> 22         0.14690

 Excited State  26:      Singlet-A     13.4039 eV   92.50 nm  f=0.0023  <S**2>=0.000
       7 -> 13         0.64104
       9 -> 15        -0.13006
      11 -> 20         0.18179

 Excited State  27:      Singlet-A     13.6353 eV   90.93 nm  f=0.0818  <S**2>=0.000
       9 -> 16        -0.22823
       9 -> 18        -0.15801
      10 -> 17        -0.22263
      10 -> 18         0.12234
      11 -> 21         0.53743

 Excited State  28:      Singlet-A     13.8123 eV   89.76 nm  f=0.0366  <S**2>=0.000
      10 -> 16        -0.10748
      10 -> 17        -0.37848
      11 -> 21        -0.12634
      12 -> 22         0.52438

 Excited State  29:      Singlet-A     13.9084 eV   89.14 nm  f=0.0876  <S**2>=0.000
       9 -> 15        -0.11840
       9 -> 16         0.13694
      10 -> 16        -0.28410
      10 -> 17         0.32505
      10 -> 18        -0.31146
      11 -> 21         0.30639
      12 -> 21        -0.11380
      12 -> 22         0.15733

 Excited State  30:      Singlet-A     14.0360 eV   88.33 nm  f=0.1307  <S**2>=0.000
       8 -> 14        -0.11232
       9 -> 15        -0.12465
       9 -> 16         0.50844
      10 -> 18         0.34253
      11 -> 21         0.14974

 Excited State  31:      Singlet-A     14.1305 eV   87.74 nm  f=0.0653  <S**2>=0.000
       9 -> 16        -0.24940
      10 -> 16        -0.14746
      10 -> 17         0.33751
      10 -> 18         0.38673
      11 -> 21        -0.10580
      12 -> 22         0.31671

 Excited State  32:      Singlet-A     14.4790 eV   85.63 nm  f=0.0412  <S**2>=0.000
       8 -> 14         0.29311
       9 -> 18         0.55279
      11 -> 21         0.15360
      12 -> 23        -0.22819

 Excited State  33:      Singlet-A     14.5585 eV   85.16 nm  f=0.0216  <S**2>=0.000
       8 -> 14         0.25777
       9 -> 17         0.51249
      12 -> 23         0.21289
      12 -> 24         0.26642

 Excited State  34:      Singlet-A     14.6581 eV   84.58 nm  f=0.0266  <S**2>=0.000
       8 -> 14        -0.16028
       9 -> 17        -0.11925
       9 -> 18         0.28563
      10 -> 18         0.11879
      12 -> 23         0.56575

 Excited State  35:      Singlet-A     14.8052 eV   83.74 nm  f=0.0981  <S**2>=0.000
       7 -> 14        -0.21996
       7 -> 15        -0.10336
       8 -> 14         0.48550
       9 -> 17        -0.25949
       9 -> 18        -0.18786
      12 -> 23         0.20168

 Excited State  36:      Singlet-A     15.0503 eV   82.38 nm  f=0.1004  <S**2>=0.000
       7 -> 14         0.50488
       8 -> 14         0.11445
       9 -> 18        -0.10390
      11 -> 22        -0.36940
      12 -> 24        -0.16044

 Excited State  37:      Singlet-A     15.2555 eV   81.27 nm  f=0.0554  <S**2>=0.000
       7 -> 14         0.36237
       8 -> 15         0.10138
      11 -> 22         0.52411

 Excited State  38:      Singlet-A     15.6241 eV   79.35 nm  f=0.0370  <S**2>=0.000
       7 -> 15         0.15151
       8 -> 15         0.20644
       8 -> 16         0.12096
       9 -> 17        -0.26810
      11 -> 22        -0.17486
      12 -> 24         0.49187

 Excited State  39:      Singlet-A     15.6644 eV   79.15 nm  f=0.0887  <S**2>=0.000
       8 -> 15         0.46957
      11 -> 23         0.42922
      12 -> 24        -0.11837

 Excited State  40:      Singlet-A     15.7569 eV   78.69 nm  f=0.0085  <S**2>=0.000
       6 -> 13         0.55071
      10 -> 19        -0.34157
      12 -> 25         0.11030
      12 -> 26        -0.15921

 Excited State  41:      Singlet-A     15.9920 eV   77.53 nm  f=0.0285  <S**2>=0.000
       8 -> 15         0.32042
       8 -> 16         0.10747
       8 -> 18         0.10170
      10 -> 20        -0.21521
      11 -> 23        -0.33821
      12 -> 24        -0.17206
      12 -> 25         0.35935

 Excited State  42:      Singlet-A     16.0975 eV   77.02 nm  f=0.0125  <S**2>=0.000
       6 -> 13        -0.14187
       7 -> 15         0.16876
       8 -> 15        -0.18379
       8 -> 16         0.25209
      11 -> 23         0.33104
      11 -> 24         0.11923
      12 -> 25         0.40714

 Excited State  43:      Singlet-A     16.2138 eV   76.47 nm  f=0.1120  <S**2>=0.000
       7 -> 15        -0.26661
       8 -> 16         0.58005
      10 -> 19         0.10694
      12 -> 25        -0.14079

 Excited State  44:      Singlet-A     16.3156 eV   75.99 nm  f=0.1558  <S**2>=0.000
       6 -> 13         0.28711
       9 -> 19        -0.11666
      10 -> 19         0.53062
      10 -> 21        -0.11157
      12 -> 25         0.24195

 Excited State  45:      Singlet-A     16.5059 eV   75.12 nm  f=0.0244  <S**2>=0.000
       7 -> 15         0.17535
       8 -> 17         0.13233
       8 -> 18        -0.17751
       9 -> 19         0.37152
       9 -> 20         0.17711
      10 -> 20        -0.25467
      11 -> 24        -0.33148
      12 -> 25        -0.10641

 Excited State  46:      Singlet-A     16.5701 eV   74.82 nm  f=0.0454  <S**2>=0.000
       7 -> 15         0.27592
       8 -> 16         0.11128
       8 -> 18        -0.11599
       9 -> 20        -0.14855
      10 -> 20        -0.18026
      11 -> 24         0.47373
      12 -> 24        -0.10993
      12 -> 25        -0.21074

 Excited State  47:      Singlet-A     16.6720 eV   74.37 nm  f=0.0146  <S**2>=0.000
       7 -> 15        -0.26386
       7 -> 17        -0.13477
       8 -> 15        -0.13934
       8 -> 17         0.43722
       8 -> 18         0.16996
      10 -> 20        -0.27715
      11 -> 24         0.14872

 Excited State  48:      Singlet-A     16.7539 eV   74.00 nm  f=0.0581  <S**2>=0.000
       7 -> 15        -0.14017
       8 -> 17        -0.13362
       8 -> 18         0.16733
       9 -> 19         0.53139
      10 -> 19         0.11157
      10 -> 20         0.12397
      11 -> 24         0.18341
      12 -> 26        -0.20969

 Excited State  49:      Singlet-A     16.8316 eV   73.66 nm  f=0.0635  <S**2>=0.000
       8 -> 17         0.22112
       8 -> 18        -0.13222
       9 -> 19         0.11624
       9 -> 20        -0.22624
      10 -> 20         0.31483
      10 -> 21        -0.30691
      11 -> 23        -0.10532
      12 -> 26         0.26514
      12 -> 27        -0.11403

 Excited State  50:      Singlet-A     16.9381 eV   73.20 nm  f=0.1383  <S**2>=0.000
       7 -> 15        -0.14281
       8 -> 16        -0.10214
       8 -> 17        -0.30327
       8 -> 18         0.16336
       9 -> 20         0.13046
       9 -> 21        -0.10996
      10 -> 19        -0.10842
      10 -> 20        -0.16757
      10 -> 21        -0.22511
      11 -> 24         0.12110
      12 -> 26         0.38469

 Excited State  51:      Singlet-A     16.9774 eV   73.03 nm  f=0.2669  <S**2>=0.000
       6 -> 14         0.10685
       7 -> 15         0.18762
       8 -> 18         0.50027
       9 -> 20        -0.28269
      11 -> 24        -0.16264
      12 -> 26         0.10083

 Excited State  52:      Singlet-A     17.0834 eV   72.58 nm  f=0.0683  <S**2>=0.000
       7 -> 15         0.10343
       7 -> 16         0.16101
       8 -> 17         0.18918
       8 -> 18         0.10436
       9 -> 20         0.43959
      10 -> 20         0.19194
      10 -> 21         0.21241
      11 -> 24         0.15831
      12 -> 26         0.24415

 Excited State  53:      Singlet-A     17.1380 eV   72.34 nm  f=0.0742  <S**2>=0.000
       6 -> 14        -0.12490
       7 -> 15        -0.13821
       7 -> 17         0.10552
       7 -> 18        -0.13760
       8 -> 18        -0.14968
       9 -> 20        -0.26720
      10 -> 20        -0.14456
      10 -> 21         0.34236
      12 -> 26         0.24794
      12 -> 27         0.23046
      12 -> 28        -0.15573

 Excited State  54:      Singlet-A     17.2553 eV   71.85 nm  f=0.0189  <S**2>=0.000
       7 -> 16         0.15626
       7 -> 17         0.10763
      10 -> 21        -0.20453
      11 -> 25         0.48027
      12 -> 27         0.32584
      12 -> 28        -0.14088

 Excited State  55:      Singlet-A     17.3379 eV   71.51 nm  f=0.0583  <S**2>=0.000
       7 -> 16        -0.21854
       7 -> 17        -0.20641
       7 -> 18         0.15201
       9 -> 21         0.13177
      10 -> 21         0.25377
      11 -> 25         0.43485
      11 -> 27        -0.12332
      12 -> 26         0.14130
      12 -> 27        -0.19878

 Excited State  56:      Singlet-A     17.4252 eV   71.15 nm  f=0.1245  <S**2>=0.000
       6 -> 14         0.12570
       7 -> 16        -0.23053
       7 -> 17        -0.15524
       7 -> 18         0.26021
       9 -> 21         0.18653
      11 -> 25        -0.14316
      12 -> 27         0.36697
      12 -> 28        -0.21775

 Excited State  57:      Singlet-A     17.6154 eV   70.38 nm  f=0.0776  <S**2>=0.000
       6 -> 14        -0.13069
       7 -> 15         0.12467
       7 -> 16         0.36655
       7 -> 17         0.12352
       7 -> 18         0.24696
       9 -> 21         0.41284
      10 -> 20        -0.10983

 Excited State  58:      Singlet-A     17.9261 eV   69.16 nm  f=0.0066  <S**2>=0.000
       6 -> 14         0.52356
       7 -> 16         0.15060
       7 -> 17        -0.15237
       7 -> 18        -0.11496
      10 -> 20        -0.11496
      11 -> 27         0.17630
      12 -> 28        -0.13646
      12 -> 29         0.11120

 Excited State  59:      Singlet-A     18.0360 eV   68.74 nm  f=0.0324  <S**2>=0.000
      10 -> 22        -0.26005
      11 -> 26         0.55797
      12 -> 28        -0.15703
      12 -> 29         0.18821

 Excited State  60:      Singlet-A     18.1074 eV   68.47 nm  f=0.0234  <S**2>=0.000
       6 -> 14         0.20903
       7 -> 16        -0.15448
       7 -> 17         0.19121
       9 -> 21         0.14598
      10 -> 22        -0.31590
      11 -> 27        -0.12388
      12 -> 27         0.20158
      12 -> 28         0.37292
      12 -> 30         0.11863

 Excited State  61:      Singlet-A     18.1276 eV   68.40 nm  f=0.0691  <S**2>=0.000
       7 -> 16         0.18619
       7 -> 17        -0.31173
       9 -> 21        -0.13137
      10 -> 22         0.18530
      11 -> 26         0.28982
      12 -> 27         0.12820
      12 -> 28         0.36826
      12 -> 29        -0.13984

 Excited State  62:      Singlet-A     18.1671 eV   68.25 nm  f=0.0926  <S**2>=0.000
       6 -> 14         0.11230
       7 -> 17         0.19854
       7 -> 18        -0.11687
       9 -> 21         0.25377
      10 -> 22         0.37217
      11 -> 26         0.19951
      11 -> 27        -0.29010
      12 -> 27        -0.12071
      12 -> 29        -0.10789

 Excited State  63:      Singlet-A     18.2900 eV   67.79 nm  f=0.0314  <S**2>=0.000
       6 -> 14         0.19693
       7 -> 17         0.17722
       7 -> 18         0.46006
       9 -> 21        -0.30283
      11 -> 27        -0.18464

 Excited State  64:      Singlet-A     18.3659 eV   67.51 nm  f=0.0474  <S**2>=0.000
       7 -> 16        -0.18340
       7 -> 17         0.24156
      10 -> 22         0.23127
      11 -> 25         0.11253
      11 -> 26         0.11636
      11 -> 27         0.42998
      11 -> 28        -0.13553
      12 -> 28         0.16904
      12 -> 29         0.16002

 Excited State  65:      Singlet-A     18.6317 eV   66.54 nm  f=0.0395  <S**2>=0.000
       7 -> 17        -0.10665
       8 -> 19        -0.13905
      11 -> 27        -0.18357
      12 -> 27         0.11364
      12 -> 29         0.57475

 Excited State  66:      Singlet-A     18.7814 eV   66.01 nm  f=0.0564  <S**2>=0.000
       8 -> 19         0.20350
      10 -> 22        -0.14933
      10 -> 23         0.53186
      12 -> 30        -0.12052
      12 -> 31        -0.29694

 Excited State  67:      Singlet-A     18.8813 eV   65.67 nm  f=0.0231  <S**2>=0.000
       6 -> 15        -0.15416
       8 -> 19         0.57207
      10 -> 23        -0.23085
      11 -> 28        -0.10753
      12 -> 29         0.14792

 Excited State  68:      Singlet-A     18.9264 eV   65.51 nm  f=0.0458  <S**2>=0.000
       6 -> 15         0.61687
       8 -> 17        -0.10211
       8 -> 19         0.18525

 Excited State  69:      Singlet-A     19.0381 eV   65.12 nm  f=0.0151  <S**2>=0.000
      10 -> 23         0.24510
      12 -> 30        -0.28091
      12 -> 31         0.56573

 Excited State  70:      Singlet-A     19.1825 eV   64.63 nm  f=0.0200  <S**2>=0.000
      10 -> 23         0.22757
      12 -> 28        -0.10107
      12 -> 30         0.56879
      12 -> 31         0.17450

 Excited State  71:      Singlet-A     19.2614 eV   64.37 nm  f=0.0487  <S**2>=0.000
       8 -> 20         0.59531
      11 -> 27         0.13880
      11 -> 28         0.21309
      12 -> 30         0.13209

 Excited State  72:      Singlet-A     19.3314 eV   64.14 nm  f=0.0641  <S**2>=0.000
       6 -> 16        -0.10147
       8 -> 19         0.12969
       8 -> 20        -0.22362
       9 -> 22         0.52851
      11 -> 28         0.21513

 Excited State  73:      Singlet-A     19.4668 eV   63.69 nm  f=0.0428  <S**2>=0.000
       6 -> 16         0.14570
       8 -> 20        -0.18936
       8 -> 21         0.11059
       9 -> 22        -0.26064
      11 -> 27         0.13155
      11 -> 28         0.47585
      11 -> 29        -0.10682
      12 -> 32         0.18804

 Excited State  74:      Singlet-A     19.4855 eV   63.63 nm  f=0.0062  <S**2>=0.000
       6 -> 16         0.41033
       6 -> 17         0.13832
      10 -> 24        -0.20135
      11 -> 29         0.38796
      11 -> 30         0.18372
      12 -> 32         0.15815

 Excited State  75:      Singlet-A     19.6851 eV   62.98 nm  f=0.0395  <S**2>=0.000
       6 -> 16        -0.25830
       6 -> 17        -0.13161
       9 -> 23         0.11827
      11 -> 28        -0.12926
      12 -> 32         0.54077

 Excited State  76:      Singlet-A     19.7511 eV   62.77 nm  f=0.0423  <S**2>=0.000
       6 -> 16        -0.33492
       6 -> 18         0.13261
       9 -> 23        -0.10010
      11 -> 28         0.19352
      11 -> 29         0.42656
      11 -> 30         0.18264
      12 -> 32        -0.15187

 Excited State  77:      Singlet-A     19.7972 eV   62.63 nm  f=0.0753  <S**2>=0.000
       6 -> 17         0.22130
       6 -> 18        -0.19082
       8 -> 21        -0.16034
       9 -> 22        -0.11760
       9 -> 23        -0.22577
      10 -> 24         0.39778
      11 -> 30        -0.15183
      11 -> 31         0.15125
      12 -> 32         0.22661

 Excited State  78:      Singlet-A     20.0163 eV   61.94 nm  f=0.0038  <S**2>=0.000
       6 -> 16         0.10935
       6 -> 18         0.34537
       7 -> 19         0.13141
       7 -> 21        -0.12344
       9 -> 22         0.18779
      10 -> 24         0.26087
      10 -> 25        -0.20837
      12 -> 33        -0.29387

 Excited State  79:      Singlet-A     20.0818 eV   61.74 nm  f=0.0229  <S**2>=0.000
       6 -> 16        -0.10654
       6 -> 17         0.43222
       6 -> 18         0.24367
       7 -> 19        -0.26449
       8 -> 21         0.10844
      11 -> 30         0.10056
      11 -> 31        -0.24679
      12 -> 33         0.12561

 Excited State  80:      Singlet-A     20.2338 eV   61.28 nm  f=0.0877  <S**2>=0.000
       6 -> 17         0.21344
       7 -> 19         0.14953
       9 -> 23         0.41667
      11 -> 29         0.18248
      11 -> 30        -0.33761
      12 -> 33         0.14808

 Excited State  81:      Singlet-A     20.3025 eV   61.07 nm  f=0.0419  <S**2>=0.000
       6 -> 16         0.12514
       6 -> 17        -0.26052
       6 -> 18         0.16426
       7 -> 19        -0.19171
       8 -> 21        -0.29338
       9 -> 23         0.15684
      10 -> 24         0.17596

 The electronic state is 1-A.
 Alpha  occ. eigenvalues --  -14.46736 -14.45991 -10.30372  -1.10017  -0.90562
 Alpha  occ. eigenvalues --   -0.70535  -0.62042  -0.59268  -0.50698  -0.48088
 Alpha  occ. eigenvalues --   -0.36035  -0.31874
 Alpha virt. eigenvalues --    0.06971   0.11615   0.15465   0.17764   0.20256
 Alpha virt. eigenvalues --    0.21245   0.29147   0.31786   0.33245   0.38559
 Alpha virt. eigenvalues --    0.41472   0.44248   0.46829   0.49592   0.51529

 Mulliken charges:
               1
     1  N   -0.355072
     2  N   -0.115144
     3  C   -0.202845
     4  H    0.247897
     5  H    0.211882
     6  H    0.131369
     7  H    0.081914
 Sum of Mulliken charges =  -0.00000

 Dipole moment (field-independent basis, Debye):
    X=              0.4803    Y=              1.6336    Z=              1.0502  Tot=              2.0005
 Quadrupole moment (field-independent basis, Debye-Ang):
   XX=            -14.5268   YY=            -18.3681   ZZ=            -20.5989
   XY=             -0.2898   XZ=              1.9222   YZ=              0.3091

 Normal termination of Gaussian 16 at Sat Aug 14 06:24:52 2021.
