 Gaussian 16, Revision C.01,
 Gaussian 16:  EM64L-G16RevC.01  3-Jul-2019

 ----------------------------------------------------------------------
 #P TD(Nstates=10000) wB97XD/def2TZVP SCF(maxcycles=100) Int(Grid=ultra
 fine)
 ----------------------------------------------------------------------

 ---------------------
 xGDB7_00001_tier4.com
 ---------------------
 Symbolic Z-matrix:
 Charge =  0 Multiplicity = 1

                         Standard orientation:
 ---------------------------------------------------------------------
 Center     Atomic      Atomic             Coordinates (Angstroms)
 Number     Number       Type             X           Y           Z
 ---------------------------------------------------------------------
      1          6           0        0.000000    0.000000    0.597322
      2          6           0        0.000000    0.000000   -0.597322
      3          1           0        0.000000    0.000000    1.661338
      4          1           0        0.000000    0.000000   -1.661338
 ---------------------------------------------------------------------

 SCF Done:  E(RwB97XD) =  -77.3281631860     A.U. after   11 cycles

 Excitation energies and oscillator strengths:

 Excited state symmetry could not be determined.
 Excited State   1:      Singlet-?Sym    6.8141 eV  181.95 nm  f=0.0000  <S**2>=0.000
       6 ->  9        -0.49772
       7 ->  8         0.49772
 This state for optimization and/or second-order correction.
 Total Energy, E(TD-HF/TD-DFT) =  -77.0777486471
 Copying the excited state density for this state as the 1-particle RhoCI density.

 Excited state symmetry could not be determined.
 Excited State   2:      Singlet-?Sym    7.0678 eV  175.42 nm  f=0.0000  <S**2>=0.000
       6 ->  9         0.49858
       7 ->  8         0.49858

 Excited state symmetry could not be determined.
 Excited State   3:      Singlet-?Sym    7.0679 eV  175.42 nm  f=0.0000  <S**2>=0.000
       6 ->  8         0.49858
       7 ->  9        -0.49858

 Excited state symmetry could not be determined.
 Excited State   4:      Singlet-?Sym    9.4298 eV  131.48 nm  f=0.0000  <S**2>=0.000
       6 -> 10         0.53955
       7 -> 10         0.44791

 Excited state symmetry could not be determined.
 Excited State   5:      Singlet-?Sym    9.4298 eV  131.48 nm  f=0.0000  <S**2>=0.000
       6 -> 10        -0.44791
       7 -> 10         0.53955

 Excited state symmetry could not be determined.
 Excited State   6:      Singlet-?Sym   10.1827 eV  121.76 nm  f=0.0011  <S**2>=0.000
       6 -> 11         0.52494
       7 -> 11         0.46132

 Excited state symmetry could not be determined.
 Excited State   7:      Singlet-?Sym   10.1827 eV  121.76 nm  f=0.0011  <S**2>=0.000
       6 -> 11        -0.46132
       7 -> 11         0.52494

 Excited state symmetry could not be determined.
 Excited State   8:      Singlet-?Sym   10.4645 eV  118.48 nm  f=0.8689  <S**2>=0.000
       6 ->  8         0.48488
       6 -> 16         0.12231
       7 ->  9         0.48488
       7 -> 17         0.12231

 Excited state symmetry could not be determined.
 Excited State   9:      Singlet-?Sym   10.6320 eV  116.61 nm  f=0.2657  <S**2>=0.000
       6 -> 12        -0.17482
       7 -> 12         0.68057

 Excited state symmetry could not be determined.
 Excited State  10:      Singlet-?Sym   10.6320 eV  116.61 nm  f=0.2657  <S**2>=0.000
       6 -> 12         0.68057
       7 -> 12         0.17482

 Excited state symmetry could not be determined.
 Excited State  11:      Singlet-?Sym   12.6279 eV   98.18 nm  f=0.0000  <S**2>=0.000
       6 -> 14        -0.49999
       7 -> 13         0.49999

 Excited state symmetry could not be determined.
 Excited State  12:      Singlet-?Sym   12.6279 eV   98.18 nm  f=0.0000  <S**2>=0.000
       6 -> 13         0.49999
       7 -> 14         0.49999

 Excited state symmetry could not be determined.
 Excited State  13:      Singlet-?Sym   12.7846 eV   96.98 nm  f=0.0000  <S**2>=0.000
       5 ->  8        -0.45160
       5 ->  9         0.46775
       6 -> 15         0.18077
       7 -> 15        -0.18723

 Excited state symmetry could not be determined.
 Excited State  14:      Singlet-?Sym   12.7846 eV   96.98 nm  f=0.0000  <S**2>=0.000
       5 ->  8         0.46775
       5 ->  9         0.45160
       6 -> 15        -0.18723
       7 -> 15        -0.18077

 Excited state symmetry could not be determined.
 Excited State  15:      Singlet-?Sym   12.8771 eV   96.28 nm  f=0.0000  <S**2>=0.000
       6 -> 13        -0.49988
       7 -> 14         0.49988

 Excited state symmetry could not be determined.
 Excited State  16:      Singlet-?Sym   13.2194 eV   93.79 nm  f=0.0000  <S**2>=0.000
       5 ->  8         0.19881
       5 ->  9         0.16585
       6 -> 15         0.50197
       7 -> 15         0.41875

 Excited state symmetry could not be determined.
 Excited State  17:      Singlet-?Sym   13.2194 eV   93.79 nm  f=0.0000  <S**2>=0.000
       5 ->  8        -0.16585
       5 ->  9         0.19881
       6 -> 15        -0.41875
       7 -> 15         0.50197

 Excited state symmetry could not be determined.
 Excited State  18:      Singlet-?Sym   13.6679 eV   90.71 nm  f=0.0000  <S**2>=0.000
       4 -> 10        -0.16306
       5 -> 11        -0.27497
       6 -> 14         0.44186
       7 -> 13         0.44186

 Excited State  19:      Singlet-SGU   14.8328 eV   83.59 nm  f=0.6742  <S**2>=0.000
       4 -> 11         0.17922
       5 -> 10         0.67694

 Excited state symmetry could not be determined.
 Excited State  20:      Singlet-?Sym   15.6801 eV   79.07 nm  f=0.2025  <S**2>=0.000
       4 ->  8         0.69171

 Excited state symmetry could not be determined.
 Excited State  21:      Singlet-?Sym   15.6801 eV   79.07 nm  f=0.2025  <S**2>=0.000
       4 ->  9         0.69171

 Excited state symmetry could not be determined.
 Excited State  22:      Singlet-?Sym   15.7549 eV   78.70 nm  f=0.0000  <S**2>=0.000
       6 -> 16         0.49832
       7 -> 17        -0.49832

 Excited state symmetry could not be determined.
 Excited State  23:      Singlet-?Sym   15.7549 eV   78.70 nm  f=0.0000  <S**2>=0.000
       6 -> 17         0.49832
       7 -> 16         0.49832

 Excited state symmetry could not be determined.
 Excited State  24:      Singlet-?Sym   15.9218 eV   77.87 nm  f=0.0000  <S**2>=0.000
       6 -> 17        -0.49706
       7 -> 16         0.49706

 Excited State  25:      Singlet-SGG   16.5026 eV   75.13 nm  f=0.0000  <S**2>=0.000
       4 -> 10         0.13832
       5 -> 11         0.37922
       5 -> 12         0.55715
       6 -> 14         0.10851
       7 -> 13         0.10851

 Excited State  26:      Singlet-SGG   16.8504 eV   73.58 nm  f=0.0000  <S**2>=0.000
       5 -> 11         0.51260
       5 -> 12        -0.40730
       6 -> 14         0.16893
       7 -> 13         0.16893

 Excited state symmetry could not be determined.
 Excited State  27:      Singlet-?Sym   17.0485 eV   72.72 nm  f=0.0000  <S**2>=0.000
       7 -> 18         0.69900

 Excited state symmetry could not be determined.
 Excited State  28:      Singlet-?Sym   17.0485 eV   72.72 nm  f=0.0000  <S**2>=0.000
       6 -> 18         0.69900

 Excited state symmetry could not be determined.
 Excited State  29:      Singlet-?Sym   17.1814 eV   72.16 nm  f=0.0281  <S**2>=0.000
       4 -> 11        -0.34621
       5 -> 10         0.15533
       5 -> 15        -0.14751
       6 -> 16         0.39179
       7 -> 17         0.39179

 Excited State  30:      Singlet-SGG   17.6379 eV   70.29 nm  f=0.0000  <S**2>=0.000
       4 -> 10         0.66576
       5 -> 11        -0.10990
       5 -> 12        -0.12765

 Excited state symmetry could not be determined.
 Excited State  31:      Singlet-?Sym   18.0366 eV   68.74 nm  f=0.0006  <S**2>=0.000
       6 -> 19         0.16107
       7 -> 19         0.67019

 Excited state symmetry could not be determined.
 Excited State  32:      Singlet-?Sym   18.0366 eV   68.74 nm  f=0.0006  <S**2>=0.000
       6 -> 19         0.67019
       7 -> 19        -0.16107

 Excited State  33:      Singlet-SGU   18.3140 eV   67.70 nm  f=0.0981  <S**2>=0.000
       4 -> 11        -0.43313
       4 -> 12         0.49411
       5 -> 15         0.10552
       6 -> 16        -0.14835
       7 -> 17        -0.14835

 Excited state symmetry could not be determined.
 Excited State  34:      Singlet-?Sym   18.5778 eV   66.74 nm  f=0.0415  <S**2>=0.000
       5 -> 13        -0.29225
       5 -> 14         0.62983

 Excited state symmetry could not be determined.
 Excited State  35:      Singlet-?Sym   18.5778 eV   66.74 nm  f=0.0415  <S**2>=0.000
       5 -> 13         0.62983
       5 -> 14         0.29225

 Excited State  36:      Singlet-SGU   18.9715 eV   65.35 nm  f=0.0373  <S**2>=0.000
       4 -> 11         0.35530
       4 -> 12         0.47712
       5 -> 15        -0.29779
       6 -> 16         0.13460
       7 -> 17         0.13460

 Excited state symmetry could not be determined.
 Excited State  37:      Singlet-?Sym   20.0994 eV   61.69 nm  f=0.0000  <S**2>=0.000
       3 ->  8         0.39089
       3 ->  9         0.29582
       4 -> 13         0.25418
       4 -> 14         0.33586
       5 -> 16         0.21559
       5 -> 17         0.16316

 Excited state symmetry could not be determined.
 Excited State  38:      Singlet-?Sym   20.0994 eV   61.69 nm  f=0.0000  <S**2>=0.000
       3 ->  8        -0.29582
       3 ->  9         0.39089
       4 -> 13         0.33586
       4 -> 14        -0.25418
       5 -> 16        -0.16316
       5 -> 17         0.21559

 Excited State  39:      Singlet-SGU   20.1291 eV   61.59 nm  f=0.4050  <S**2>=0.000
       3 -> 10        -0.11405
       4 -> 11         0.16904
       4 -> 12         0.12212
       5 -> 15         0.60420
       6 ->  8        -0.10810
       6 -> 16         0.16232
       7 ->  9        -0.10810
       7 -> 17         0.16232

 Excited state symmetry could not be determined.
 Excited State  40:      Singlet-?Sym   20.6638 eV   60.00 nm  f=0.0000  <S**2>=0.000
       3 ->  8         0.27277
       3 ->  9         0.40639
       4 -> 13        -0.38543
       4 -> 14        -0.25870
       5 -> 16        -0.10606
       5 -> 17        -0.15802

 Excited state symmetry could not be determined.
 Excited State  41:      Singlet-?Sym   20.6638 eV   60.00 nm  f=0.0000  <S**2>=0.000
       3 ->  8         0.40639
       3 ->  9        -0.27277
       4 -> 13         0.25870
       4 -> 14        -0.38543
       5 -> 16        -0.15802
       5 -> 17         0.10606

 Excited State  42:      Singlet-SGG   21.4672 eV   57.76 nm  f=0.0000  <S**2>=0.000
       4 -> 15         0.69528

 Excited state symmetry could not be determined.
 Excited State  43:      Singlet-?Sym   21.8493 eV   56.75 nm  f=0.0000  <S**2>=0.000
       4 -> 13         0.14005
       4 -> 14        -0.29323
       5 -> 16         0.56015
       5 -> 17        -0.26753

 Excited state symmetry could not be determined.
 Excited State  44:      Singlet-?Sym   21.8493 eV   56.75 nm  f=0.0000  <S**2>=0.000
       4 -> 13        -0.29323
       4 -> 14        -0.14005
       5 -> 16         0.26753
       5 -> 17         0.56015

 Excited state symmetry could not be determined.
 Excited State  45:      Singlet-?Sym   21.9659 eV   56.44 nm  f=0.0018  <S**2>=0.000
       6 -> 20        -0.23483
       7 -> 20         0.66283

 Excited state symmetry could not be determined.
 Excited State  46:      Singlet-?Sym   21.9659 eV   56.44 nm  f=0.0018  <S**2>=0.000
       6 -> 20         0.66283
       7 -> 20         0.23483

 Excited state symmetry could not be determined.
 Excited State  47:      Singlet-?Sym   22.1838 eV   55.89 nm  f=0.0000  <S**2>=0.000
       6 -> 22        -0.49905
       7 -> 21         0.49905

 Excited state symmetry could not be determined.
 Excited State  48:      Singlet-?Sym   22.1838 eV   55.89 nm  f=0.0000  <S**2>=0.000
       6 -> 21         0.49905
       7 -> 22         0.49905

 Excited State  49:      Singlet-SGU   22.4842 eV   55.14 nm  f=0.2332  <S**2>=0.000
       3 -> 10         0.51444
       4 -> 19         0.12316
       5 -> 18         0.43951

 Excited State  50:      Singlet-SGU   22.8126 eV   54.35 nm  f=0.0775  <S**2>=0.000
       3 -> 10        -0.45239
       5 -> 18         0.52905

 Excited State  51:      Singlet-SGG   23.2144 eV   53.41 nm  f=0.0000  <S**2>=0.000
       3 -> 11         0.69449

 Excited state symmetry could not be determined.
 Excited State  52:      Singlet-?Sym   23.5247 eV   52.70 nm  f=0.4759  <S**2>=0.000
       3 -> 14         0.12959
       4 -> 16         0.52036
       4 -> 17         0.25700
       6 -> 21        -0.22826
       6 -> 22         0.11273
       7 -> 21         0.11273
       7 -> 22         0.22826

 Excited state symmetry could not be determined.
 Excited State  53:      Singlet-?Sym   23.5247 eV   52.70 nm  f=0.4759  <S**2>=0.000
       3 -> 13         0.12959
       4 -> 16        -0.25700
       4 -> 17         0.52036
       6 -> 21         0.11273
       6 -> 22         0.22826
       7 -> 21         0.22826
       7 -> 22        -0.11273

 Excited State  54:      Singlet-SGG   23.6393 eV   52.45 nm  f=0.0000  <S**2>=0.000
       3 -> 12         0.61961
       5 -> 19         0.31508

 Excited state symmetry could not be determined.
 Excited State  55:      Singlet-?Sym   23.9811 eV   51.70 nm  f=0.0000  <S**2>=0.000
       6 -> 23        -0.43898
       7 -> 23         0.54873

 Excited state symmetry could not be determined.
 Excited State  56:      Singlet-?Sym   23.9811 eV   51.70 nm  f=0.0000  <S**2>=0.000
       6 -> 23         0.54873
       7 -> 23         0.43898

 Excited State  57:      Singlet-SGG   24.5707 eV   50.46 nm  f=0.0000  <S**2>=0.000
       3 -> 12        -0.31359
       4 -> 18         0.18264
       5 -> 19         0.55043
       6 -> 25         0.14621
       7 -> 24         0.14621

 Excited state symmetry could not be determined.
 Excited State  58:      Singlet-?Sym   24.7861 eV   50.02 nm  f=0.6461  <S**2>=0.000
       3 -> 13        -0.14150
       3 -> 14        -0.23865
       4 -> 16         0.33065
       4 -> 17         0.19605
       6 -> 21         0.30481
       6 -> 22        -0.18072
       7 -> 21        -0.18072
       7 -> 22        -0.30481

 Excited state symmetry could not be determined.
 Excited State  59:      Singlet-?Sym   24.7861 eV   50.02 nm  f=0.6461  <S**2>=0.000
       3 -> 13        -0.23865
       3 -> 14         0.14150
       4 -> 16        -0.19605
       4 -> 17         0.33065
       6 -> 21        -0.18072
       6 -> 22        -0.30481
       7 -> 21        -0.30481
       7 -> 22         0.18072

 Excited State  60:      Singlet-SGG   25.1698 eV   49.26 nm  f=0.0000  <S**2>=0.000
       4 -> 18         0.65777
       5 -> 19        -0.23111

 Excited state symmetry could not be determined.
 Excited State  61:      Singlet-?Sym   25.9862 eV   47.71 nm  f=0.0000  <S**2>=0.000
       6 -> 25        -0.49981
       7 -> 24         0.49981

 Excited state symmetry could not be determined.
 Excited State  62:      Singlet-?Sym   25.9862 eV   47.71 nm  f=0.0000  <S**2>=0.000
       6 -> 24         0.49981
       7 -> 25         0.49981

 Excited state symmetry could not be determined.
 Excited State  63:      Singlet-?Sym   26.0326 eV   47.63 nm  f=0.0000  <S**2>=0.000
       6 -> 24         0.49991
       7 -> 25        -0.49991

 Excited State  64:      Singlet-SGU   26.0441 eV   47.61 nm  f=0.1117  <S**2>=0.000
       3 -> 15        -0.38506
       4 -> 19         0.57291
       5 -> 18        -0.11554

 Excited state symmetry could not be determined.
 Excited State  65:      Singlet-?Sym   26.3441 eV   47.06 nm  f=0.1063  <S**2>=0.000
       3 -> 13         0.60762
       3 -> 14         0.17197
       5 -> 24         0.10104
       6 -> 22        -0.19650
       7 -> 21        -0.19650

 Excited state symmetry could not be determined.
 Excited State  66:      Singlet-?Sym   26.3441 eV   47.06 nm  f=0.1063  <S**2>=0.000
       3 -> 13        -0.17197
       3 -> 14         0.60762
       5 -> 25         0.10104
       6 -> 21         0.19650
       7 -> 22        -0.19650

 Excited State  67:      Singlet-SGU   26.4480 eV   46.88 nm  f=0.0003  <S**2>=0.000
       3 -> 15         0.58155
       4 -> 19         0.37944

 Excited State  68:      Singlet-SGG   27.4551 eV   45.16 nm  f=0.0000  <S**2>=0.000
       5 -> 20         0.44562
       6 -> 25         0.36345
       7 -> 24         0.36345

 Excited state symmetry could not be determined.
 Excited State  69:      Singlet-?Sym   28.0895 eV   44.14 nm  f=0.0000  <S**2>=0.000
       5 -> 21         0.70498

 Excited state symmetry could not be determined.
 Excited State  70:      Singlet-?Sym   28.0895 eV   44.14 nm  f=0.0000  <S**2>=0.000
       5 -> 22         0.70498

 Excited State  71:      Singlet-SGG   28.7557 eV   43.12 nm  f=0.0000  <S**2>=0.000
       4 -> 18         0.10336
       5 -> 19         0.12763
       5 -> 20         0.53454
       6 -> 25        -0.27802
       7 -> 24        -0.27802

 Excited state symmetry could not be determined.
 Excited State  72:      Singlet-?Sym   28.8867 eV   42.92 nm  f=0.0000  <S**2>=0.000
       3 -> 16         0.69354

 Excited state symmetry could not be determined.
 Excited State  73:      Singlet-?Sym   28.8867 eV   42.92 nm  f=0.0000  <S**2>=0.000
       3 -> 17         0.69354

 Excited State  74:      Singlet-SGU   29.8816 eV   41.49 nm  f=0.1394  <S**2>=0.000
       3 -> 18        -0.17950
       4 -> 20         0.58106
       5 -> 23        -0.34728

 Excited State  75:      Singlet-SGU   30.0190 eV   41.30 nm  f=0.0133  <S**2>=0.000
       3 -> 18         0.59067
       5 -> 23        -0.37665

 Excited state symmetry could not be determined.
 Excited State  76:      Singlet-?Sym   30.2934 eV   40.93 nm  f=0.0000  <S**2>=0.000
       4 -> 21         0.70354

 Excited state symmetry could not be determined.
 Excited State  77:      Singlet-?Sym   30.2934 eV   40.93 nm  f=0.0000  <S**2>=0.000
       4 -> 22         0.70354

 Excited state symmetry could not be determined.
 Excited State  78:      Singlet-?Sym   30.4581 eV   40.71 nm  f=0.0000  <S**2>=0.000
       6 -> 26         0.48224
       6 -> 27         0.13199
       7 -> 26        -0.13199
       7 -> 27         0.48224

 Excited state symmetry could not be determined.
 Excited State  79:      Singlet-?Sym   30.4581 eV   40.71 nm  f=0.0000  <S**2>=0.000
       6 -> 26         0.13199
       6 -> 27        -0.48224
       7 -> 26         0.48224
       7 -> 27         0.13199

 Excited State  80:      Singlet-SGU   30.8328 eV   40.21 nm  f=0.0159  <S**2>=0.000
       3 -> 18         0.32344
       4 -> 20         0.38670
       5 -> 23         0.47847

 Excited state symmetry could not be determined.
 Excited State  81:      Singlet-?Sym   31.0374 eV   39.95 nm  f=0.0000  <S**2>=0.000
       6 -> 27        -0.24768
       6 -> 28         0.14974
       7 -> 26        -0.24768
       7 -> 28         0.58065

 Excited state symmetry could not be determined.
 Excited State  82:      Singlet-?Sym   31.0374 eV   39.95 nm  f=0.0000  <S**2>=0.000
       6 -> 26         0.24768
       6 -> 28         0.58065
       7 -> 27        -0.24768
       7 -> 28        -0.14974

 Excited State  83:      Singlet-SGG   31.2007 eV   39.74 nm  f=0.0000  <S**2>=0.000
       3 -> 19         0.69694

 Excited state symmetry could not be determined.
 Excited State  84:      Singlet-?Sym   31.5742 eV   39.27 nm  f=0.0000  <S**2>=0.000
       4 -> 25        -0.15256
       6 -> 26        -0.37961
       6 -> 27        -0.13477
       6 -> 28         0.34618
       7 -> 26        -0.13477
       7 -> 27         0.37961
       7 -> 28        -0.12290

 Excited state symmetry could not be determined.
 Excited State  85:      Singlet-?Sym   31.5742 eV   39.27 nm  f=0.0000  <S**2>=0.000
       4 -> 24        -0.15256
       6 -> 26        -0.13477
       6 -> 27         0.37961
       6 -> 28         0.12290
       7 -> 26         0.37961
       7 -> 27         0.13477
       7 -> 28         0.34618

 Excited State  86:      Singlet-SGG   32.1906 eV   38.52 nm  f=0.0000  <S**2>=0.000
       4 -> 23         0.69362

 Excited state symmetry could not be determined.
 Excited State  87:      Singlet-?Sym   32.2394 eV   38.46 nm  f=0.0237  <S**2>=0.000
       5 -> 25         0.32978
       6 -> 29         0.59596
       7 -> 29         0.16031

 Excited state symmetry could not be determined.
 Excited State  88:      Singlet-?Sym   32.2394 eV   38.46 nm  f=0.0237  <S**2>=0.000
       5 -> 24         0.32978
       6 -> 29        -0.16031
       7 -> 29         0.59596

 Excited state symmetry could not be determined.
 Excited State  89:      Singlet-?Sym   33.3488 eV   37.18 nm  f=1.0768  <S**2>=0.000
       5 -> 24         0.51187
       5 -> 25        -0.31467
       6 -> 29         0.17724
       7 -> 29        -0.28832

 Excited state symmetry could not be determined.
 Excited State  90:      Singlet-?Sym   33.3488 eV   37.18 nm  f=1.0768  <S**2>=0.000
       5 -> 24         0.31467
       5 -> 25         0.51187
       6 -> 29        -0.28832
       7 -> 29        -0.17724

 Excited state symmetry could not be determined.
 Excited State  91:      Singlet-?Sym   34.8393 eV   35.59 nm  f=0.0000  <S**2>=0.000
       4 -> 24         0.25985
       4 -> 25         0.63350
       6 -> 26        -0.10588
       7 -> 27         0.10588

 Excited state symmetry could not be determined.
 Excited State  92:      Singlet-?Sym   34.8393 eV   35.59 nm  f=0.0000  <S**2>=0.000
       4 -> 24         0.63350
       4 -> 25        -0.25985
       6 -> 27         0.10588
       7 -> 26         0.10588

 Excited State  93:      Singlet-SGG   34.9993 eV   35.42 nm  f=0.0000  <S**2>=0.000
       3 -> 20         0.70159

 Excited state symmetry could not be determined.
 Excited State  94:      Singlet-?Sym   35.2551 eV   35.17 nm  f=0.0000  <S**2>=0.000
       6 -> 31        -0.49819
       7 -> 30         0.49819

 Excited state symmetry could not be determined.
 Excited State  95:      Singlet-?Sym   35.2551 eV   35.17 nm  f=0.0000  <S**2>=0.000
       6 -> 30         0.49819
       7 -> 31         0.49819

 Excited state symmetry could not be determined.
 Excited State  96:      Singlet-?Sym   35.4499 eV   34.97 nm  f=0.0000  <S**2>=0.000
       3 -> 21         0.70566

 Excited state symmetry could not be determined.
 Excited State  97:      Singlet-?Sym   35.4499 eV   34.97 nm  f=0.0000  <S**2>=0.000
       3 -> 22         0.70566

 Excited state symmetry could not be determined.
 Excited State  98:      Singlet-?Sym   35.4571 eV   34.97 nm  f=0.0000  <S**2>=0.000
       6 -> 30         0.49976
       7 -> 31        -0.49976

 Excited state symmetry could not be determined.
 Excited State  99:      Singlet-?Sym   35.7391 eV   34.69 nm  f=0.1519  <S**2>=0.000
       3 -> 23        -0.23172
       5 -> 28        -0.16690
       6 -> 31         0.45167
       7 -> 30         0.45167

 Excited state symmetry could not be determined.
 Excited State 100:      Singlet-?Sym   36.5713 eV   33.90 nm  f=0.0000  <S**2>=0.000
       5 -> 27         0.70099

 Excited state symmetry could not be determined.
 Excited State 101:      Singlet-?Sym   36.5713 eV   33.90 nm  f=0.0000  <S**2>=0.000
       5 -> 26         0.70099

 Excited State 102:      Singlet-SGU   37.1133 eV   33.41 nm  f=0.0020  <S**2>=0.000
       3 -> 23         0.61711
       5 -> 28        -0.30721
       6 -> 31         0.10231
       7 -> 30         0.10231

 Excited State 103:      Singlet-SGU   38.2815 eV   32.39 nm  f=0.0187  <S**2>=0.000
       3 -> 23         0.24526
       5 -> 28         0.59585
       6 -> 31         0.16548
       7 -> 30         0.16548

 The electronic state is 1-SGG.
 Alpha  occ. eigenvalues --  -10.29314 -10.29040  -0.85525  -0.66063  -0.58701
 Alpha  occ. eigenvalues --   -0.38065  -0.38065
 Alpha virt. eigenvalues --    0.10095   0.10095   0.13800   0.17034   0.20819
 Alpha virt. eigenvalues --    0.29416   0.29416   0.29818   0.40853   0.40853
 Alpha virt. eigenvalues --    0.42439   0.46660   0.62988   0.67267   0.67267

 Mulliken charges:
               1
     1  C   -0.202257
     2  C   -0.202257
     3  H    0.202257
     4  H    0.202257
 Sum of Mulliken charges =  -0.00000

 Dipole moment (field-independent basis, Debye):
    X=              0.0000    Y=              0.0000    Z=              0.0000  Tot=              0.0000
 Quadrupole moment (field-independent basis, Debye-Ang):
   XX=            -13.6272   YY=            -13.6272   ZZ=             -6.7701
   XY=              0.0000   XZ=             -0.0000   YZ=              0.0000

 1\1\GINC-HEL15\SP\RwB97XD TD-FC\def2TZVP\C2H2\PRAKRITI\14-Aug-2021\0\\
 #P TD(Nstates=10000) wB97XD/def2TZVP SCF(maxcycles=100) Int(Grid=ultra
 fine)\\xGDB7_00001_tier4.com\\0,1\C,0,0.,0.,0.597322\C,0,0.,0.,-0.5973
 22\H,0,0.,0.,1.661338\H,0,0.,0.,-1.661338\\Version=EM64L-G16RevC.01\St
 ate=1-SGG\HF=-77.3281632\RMSD=3.971e-09\PG=D*H [C*(H1C1.C1H1)]\\@
 The archive entry for this job was punched.

 Normal termination of Gaussian 16 at Sat Aug 14 06:18:53 2021.
