 Gaussian 16, Revision C.01,
 Gaussian 16:  EM64L-G16RevC.01  3-Jul-2019

 ----------------------------------------------------------------------
 #P TD(Nstates=10000) wB97XD/def2TZVP SCF(maxcycles=100) Int(Grid=ultra
 fine)
 ----------------------------------------------------------------------

 ---------------------
 xGDB7_00001_tier4.com
 ---------------------
 Symbolic Z-matrix:
 Charge =  0 Multiplicity = 1

                         Standard orientation:
 ---------------------------------------------------------------------
 Center     Atomic      Atomic             Coordinates (Angstroms)
 Number     Number       Type             X           Y           Z
 ---------------------------------------------------------------------
      1          6           0       -0.026655   -0.220923    1.206915
      2          7           0       -0.026655    0.579675   -0.000000
      3          6           0       -0.026655   -0.220923   -1.206915
      4          1           0        0.028929    0.427196    2.082330
      5          1           0        0.800836   -0.947383    1.258571
      6          1           0       -0.961718   -0.783094    1.269367
      7          1           0        0.770359    1.199905   -0.000000
      8          1           0       -0.961718   -0.783094   -1.269367
      9          1           0        0.800836   -0.947383   -1.258571
     10          1           0        0.028929    0.427196   -2.082330
 ---------------------------------------------------------------------

 SCF Done:  E(RwB97XD) =  -135.173138074     A.U. after   13 cycles

 Excitation energies and oscillator strengths:

 Excited State   1:      Singlet-A'     6.4099 eV  193.42 nm  f=0.0044  <S**2>=0.000
      13 -> 14         0.67889
      13 -> 15         0.17440
 This state for optimization and/or second-order correction.
 Total Energy, E(TD-HF/TD-DFT) =  -134.937576816
 Copying the excited state density for this state as the 1-particle RhoCI density.

 Excited State   2:      Singlet-A'     7.6837 eV  161.36 nm  f=0.0727  <S**2>=0.000
      13 -> 14        -0.16357
      13 -> 15         0.67400
      13 -> 17        -0.10144

 Excited State   3:      Singlet-A"     8.2234 eV  150.77 nm  f=0.0044  <S**2>=0.000
      13 -> 16         0.69856

 Excited State   4:      Singlet-A'     8.4325 eV  147.03 nm  f=0.0162  <S**2>=0.000
      13 -> 17         0.68792

 Excited State   5:      Singlet-A'     8.8900 eV  139.46 nm  f=0.1399  <S**2>=0.000
      13 -> 18         0.67996
      13 -> 20         0.16567

 Excited State   6:      Singlet-A'     9.2893 eV  133.47 nm  f=0.0010  <S**2>=0.000
      13 -> 18        -0.16874
      13 -> 20         0.67791

 Excited State   7:      Singlet-A"     9.4435 eV  131.29 nm  f=0.0479  <S**2>=0.000
      13 -> 19         0.69438

 Excited State   8:      Singlet-A"     9.8247 eV  126.20 nm  f=0.0741  <S**2>=0.000
      13 -> 21         0.69574

 Excited State   9:      Singlet-A"    10.4040 eV  119.17 nm  f=0.0425  <S**2>=0.000
      12 -> 14         0.66704
      13 -> 22        -0.14937

 Excited State  10:      Singlet-A'    10.4436 eV  118.72 nm  f=0.0117  <S**2>=0.000
      11 -> 14         0.67882
      12 -> 16        -0.11881

 Excited State  11:      Singlet-A"    10.6597 eV  116.31 nm  f=0.0165  <S**2>=0.000
      10 -> 14         0.15975
      12 -> 14         0.15054
      13 -> 22         0.65052

 Excited State  12:      Singlet-A"    11.0458 eV  112.25 nm  f=0.0002  <S**2>=0.000
      10 -> 14         0.64135
      11 -> 16        -0.16495
      13 -> 22        -0.17258

 Excited State  13:      Singlet-A'    11.4448 eV  108.33 nm  f=0.0297  <S**2>=0.000
      11 -> 15        -0.18584
      12 -> 16        -0.13218
      13 -> 23         0.66132

 Excited State  14:      Singlet-A'    11.5429 eV  107.41 nm  f=0.2954  <S**2>=0.000
      10 -> 16         0.10733
      11 -> 15         0.60236
      12 -> 16         0.22908
      13 -> 23         0.21929

 Excited State  15:      Singlet-A"    11.5807 eV  107.06 nm  f=0.0360  <S**2>=0.000
      11 -> 16         0.18839
      12 -> 15         0.62942
      13 -> 24        -0.19411

 Excited State  16:      Singlet-A"    11.7066 eV  105.91 nm  f=0.0072  <S**2>=0.000
      10 -> 15         0.10671
      11 -> 16         0.25025
      12 -> 17         0.17081
      13 -> 24         0.59885

 Excited State  17:      Singlet-A"    11.9282 eV  103.94 nm  f=0.0349  <S**2>=0.000
       9 -> 14        -0.12351
      10 -> 14         0.11461
      10 -> 15         0.20913
      11 -> 16         0.37374
      12 -> 15        -0.27312
      12 -> 17         0.30605
      13 -> 24        -0.29498

 Excited State  18:      Singlet-A'    11.9431 eV  103.81 nm  f=0.1120  <S**2>=0.000
       8 -> 14        -0.23648
      10 -> 16        -0.13593
      11 -> 14         0.11294
      11 -> 15        -0.23266
      11 -> 17         0.12239
      12 -> 16         0.55641

 Excited State  19:      Singlet-A'    12.1376 eV  102.15 nm  f=0.0138  <S**2>=0.000
       8 -> 14         0.13402
      13 -> 25         0.65931

 Excited State  20:      Singlet-A"    12.2177 eV  101.48 nm  f=0.2669  <S**2>=0.000
      10 -> 15         0.51826
      12 -> 17        -0.39394
      12 -> 18        -0.12277

 Excited State  21:      Singlet-A"    12.3036 eV  100.77 nm  f=0.0310  <S**2>=0.000
       9 -> 14         0.39626
      10 -> 15         0.31226
      11 -> 16        -0.24996
      11 -> 19         0.11446
      12 -> 17         0.32577
      12 -> 18         0.10868

 Excited State  22:      Singlet-A'    12.3267 eV  100.58 nm  f=0.0272  <S**2>=0.000
       8 -> 14         0.19181
      10 -> 16         0.34669
      11 -> 15        -0.10069
      11 -> 17         0.52922
      11 -> 18        -0.14965

 Excited State  23:      Singlet-A"    12.4628 eV   99.48 nm  f=0.0642  <S**2>=0.000
       9 -> 14        -0.10539
      10 -> 18         0.10113
      11 -> 19         0.11215
      11 -> 21         0.13428
      12 -> 17        -0.10740
      12 -> 18         0.63789

 Excited State  24:      Singlet-A'    12.5360 eV   98.90 nm  f=0.1283  <S**2>=0.000
      11 -> 17         0.14756
      11 -> 18         0.63501
      12 -> 19         0.10152
      12 -> 21         0.16114

 Excited State  25:      Singlet-A"    12.6722 eV   97.84 nm  f=0.2800  <S**2>=0.000
       9 -> 14         0.46514
       9 -> 15         0.13586
      10 -> 15        -0.11954
      10 -> 17         0.21542
      11 -> 16         0.29117
      12 -> 17        -0.22736
      12 -> 20         0.12750

 Excited State  26:      Singlet-A'    12.7021 eV   97.61 nm  f=0.1941  <S**2>=0.000
       8 -> 14         0.25586
       9 -> 16        -0.10817
      10 -> 16         0.40135
      11 -> 14         0.10080
      11 -> 15        -0.10775
      11 -> 17        -0.36051
      11 -> 20         0.11295
      12 -> 16         0.23002

 Excited State  27:      Singlet-A"    12.8996 eV   96.11 nm  f=0.0000  <S**2>=0.000
      10 -> 17         0.20831
      10 -> 18        -0.25576
      11 -> 19        -0.17136
      13 -> 26         0.55701

 Excited State  28:      Singlet-A'    12.9350 eV   95.85 nm  f=0.0201  <S**2>=0.000
       8 -> 14         0.50811
       8 -> 15         0.17138
       8 -> 17         0.11849
      10 -> 16        -0.32550
      10 -> 19        -0.13575
      12 -> 16         0.11970
      12 -> 19         0.11151
      13 -> 25        -0.13555

 Excited State  29:      Singlet-A"    13.0181 eV   95.24 nm  f=0.1185  <S**2>=0.000
       9 -> 15        -0.13657
      10 -> 15         0.12749
      10 -> 17         0.52680
      10 -> 18         0.15551
      11 -> 16        -0.13696
      11 -> 19        -0.18836
      12 -> 20         0.11512
      13 -> 26        -0.21111

 Excited State  30:      Singlet-A"    13.1142 eV   94.54 nm  f=0.0294  <S**2>=0.000
       9 -> 14        -0.13231
       9 -> 17        -0.10939
      10 -> 15        -0.10181
      10 -> 18         0.36109
      10 -> 20         0.10114
      11 -> 19         0.33230
      12 -> 18        -0.14327
      12 -> 20         0.25372
      13 -> 26         0.28149

 Excited State  31:      Singlet-A'    13.2127 eV   93.84 nm  f=0.0152  <S**2>=0.000
      10 -> 16        -0.11809
      10 -> 19         0.12410
      11 -> 20         0.59365
      12 -> 19         0.16848
      12 -> 22         0.13422
      13 -> 27        -0.11128

 Excited State  32:      Singlet-A"    13.2768 eV   93.38 nm  f=0.0014  <S**2>=0.000
       9 -> 14        -0.11990
      10 -> 17        -0.12344
      10 -> 18        -0.23294
      11 -> 21        -0.15375
      12 -> 20         0.57670

 Excited State  33:      Singlet-A'    13.3932 eV   92.57 nm  f=0.0499  <S**2>=0.000
       8 -> 15         0.18243
       8 -> 17        -0.21668
      10 -> 19        -0.13004
      12 -> 19         0.45054
      12 -> 21        -0.32621
      13 -> 27        -0.15420

 Excited State  34:      Singlet-A"    13.4593 eV   92.12 nm  f=0.0175  <S**2>=0.000
       9 -> 14        -0.16173
       9 -> 15         0.29534
      10 -> 17         0.13995
      10 -> 18        -0.23584
      10 -> 20         0.21168
      11 -> 16        -0.17072
      11 -> 19         0.29383
      11 -> 21        -0.25550
      11 -> 22         0.11546
      12 -> 20        -0.11920
      13 -> 26        -0.12614

 Excited State  35:      Singlet-A'    13.5281 eV   91.65 nm  f=0.0071  <S**2>=0.000
       8 -> 18         0.10618
      11 -> 18        -0.18756
      11 -> 20        -0.10584
      12 -> 19         0.34125
      12 -> 21         0.53745

 Excited State  36:      Singlet-A"    13.6923 eV   90.55 nm  f=0.0063  <S**2>=0.000
       9 -> 15         0.34228
       9 -> 17         0.11286
       9 -> 18         0.20612
      10 -> 18        -0.18430
      10 -> 20        -0.23098
      11 -> 21         0.43569

 Excited State  37:      Singlet-A"    13.7266 eV   90.32 nm  f=0.0316  <S**2>=0.000
       9 -> 15         0.43916
       9 -> 18        -0.18399
      10 -> 18         0.26792
      10 -> 20        -0.21672
      11 -> 19        -0.24262
      11 -> 21        -0.23859

 Excited State  38:      Singlet-A'    13.7551 eV   90.14 nm  f=0.0268  <S**2>=0.000
       7 -> 14         0.22734
       7 -> 15         0.13081
       8 -> 15         0.23438
       9 -> 16         0.12158
      10 -> 19        -0.34579
      11 -> 20         0.21322
      13 -> 27         0.35126

 Excited State  39:      Singlet-A'    13.8626 eV   89.44 nm  f=0.0613  <S**2>=0.000
       8 -> 17         0.10723
       8 -> 18        -0.12541
       9 -> 16         0.17402
      10 -> 19         0.33044
      12 -> 19         0.19663
      12 -> 21        -0.12991
      13 -> 27         0.48276

 Excited State  40:      Singlet-A"    13.8796 eV   89.33 nm  f=0.0282  <S**2>=0.000
       9 -> 15         0.15577
       9 -> 17         0.19831
      10 -> 17        -0.12487
      10 -> 20         0.51098
      11 -> 19        -0.29892
      11 -> 21         0.11715

 Excited State  41:      Singlet-A'    13.9992 eV   88.57 nm  f=0.0240  <S**2>=0.000
       7 -> 14        -0.35951
       8 -> 15         0.43000
       8 -> 17         0.10169
       9 -> 16         0.20633
      10 -> 16         0.15852
      12 -> 22         0.20656

 Excited State  42:      Singlet-A'    14.2065 eV   87.27 nm  f=0.2353  <S**2>=0.000
       7 -> 14         0.38476
       7 -> 17         0.10012
       8 -> 15         0.11550
       9 -> 16         0.41652
      10 -> 19         0.19309
      13 -> 27        -0.26269

 Excited State  43:      Singlet-A'    14.2541 eV   86.98 nm  f=0.0240  <S**2>=0.000
       7 -> 14         0.13131
       8 -> 15         0.37039
       8 -> 17        -0.10228
       8 -> 20        -0.10731
       9 -> 16        -0.36914
      10 -> 19         0.27232
      10 -> 21         0.12577
      12 -> 19        -0.12975
      12 -> 22        -0.16859

 Excited State  44:      Singlet-A"    14.3046 eV   86.67 nm  f=0.1130  <S**2>=0.000
       9 -> 17         0.52642
       9 -> 18        -0.10304
      10 -> 20        -0.12662
      11 -> 19         0.10278
      11 -> 22         0.33073
      12 -> 23        -0.10739

 Excited State  45:      Singlet-A'    14.3847 eV   86.19 nm  f=0.0863  <S**2>=0.000
       7 -> 14        -0.19347
       8 -> 14         0.12088
       8 -> 17        -0.26483
       8 -> 18        -0.14613
       9 -> 16         0.21508
      10 -> 21         0.42653
      10 -> 22         0.10058
      12 -> 21         0.10749
      12 -> 22        -0.20609

 Excited State  46:      Singlet-A"    14.5747 eV   85.07 nm  f=0.0382  <S**2>=0.000
       9 -> 17         0.12658
       9 -> 18         0.59773
      11 -> 21        -0.28892
      11 -> 22        -0.11485

 Excited State  47:      Singlet-A"    14.5812 eV   85.03 nm  f=0.0004  <S**2>=0.000
       8 -> 16         0.63636
      10 -> 17         0.10282
      13 -> 28        -0.14702

 Excited State  48:      Singlet-A'    14.6205 eV   84.80 nm  f=0.0796  <S**2>=0.000
       7 -> 14         0.21256
       8 -> 17         0.12330
       8 -> 20         0.12721
       9 -> 19         0.14040
      10 -> 21         0.37750
      11 -> 23        -0.20566
      12 -> 22         0.38699

 Excited State  49:      Singlet-A"    14.7378 eV   84.13 nm  f=0.0048  <S**2>=0.000
       8 -> 16         0.11384
      10 -> 20         0.11861
      10 -> 23        -0.10542
      13 -> 28         0.64892

 Excited State  50:      Singlet-A'    14.9186 eV   83.11 nm  f=0.0095  <S**2>=0.000
       7 -> 14        -0.11980
       7 -> 17         0.10376
       8 -> 17         0.33378
       8 -> 18         0.27488
       9 -> 21         0.16268
      10 -> 21         0.28433
      10 -> 22        -0.23483
      12 -> 21        -0.10489
      12 -> 22        -0.24463

 Excited State  51:      Singlet-A"    14.9623 eV   82.86 nm  f=0.0306  <S**2>=0.000
       9 -> 17        -0.32001
       9 -> 18         0.14099
       9 -> 20         0.18999
      11 -> 19        -0.13889
      11 -> 22         0.49615
      12 -> 23        -0.11993

 Excited State  52:      Singlet-A'    15.0397 eV   82.44 nm  f=0.0082  <S**2>=0.000
       7 -> 15         0.22836
       7 -> 17        -0.10037
       8 -> 18         0.40011
       9 -> 19         0.11309
      10 -> 19         0.17092
      10 -> 22         0.15516
      11 -> 23        -0.11192
      11 -> 25         0.12248
      12 -> 24        -0.29835
      13 -> 30         0.15281

 Excited State  53:      Singlet-A"    15.2127 eV   81.50 nm  f=0.1217  <S**2>=0.000
       7 -> 16         0.12499
       8 -> 19         0.14884
       9 -> 20         0.47596
      11 -> 22        -0.26579
      11 -> 24        -0.19194
      12 -> 23        -0.27994

 Excited State  54:      Singlet-A'    15.2530 eV   81.28 nm  f=0.1155  <S**2>=0.000
       7 -> 15         0.49361
       8 -> 18        -0.29156
       8 -> 20         0.14045
       9 -> 19         0.16742
      10 -> 21        -0.11071
      10 -> 22        -0.13712
      11 -> 23        -0.11840
      12 -> 22        -0.10424

 Excited State  55:      Singlet-A'    15.2862 eV   81.11 nm  f=0.0314  <S**2>=0.000
       7 -> 15         0.32938
       8 -> 20        -0.19655
      10 -> 21         0.12797
      11 -> 23         0.34182
      11 -> 25        -0.12483
      12 -> 22         0.19160
      12 -> 24         0.24540
      13 -> 30         0.21262

 Excited State  56:      Singlet-A"    15.3840 eV   80.59 nm  f=0.0730  <S**2>=0.000
       9 -> 20         0.41149
      11 -> 24         0.20791
      12 -> 23         0.46804
      12 -> 25        -0.12792

 Excited State  57:      Singlet-A'    15.4092 eV   80.46 nm  f=0.0202  <S**2>=0.000
       8 -> 17        -0.30096
       8 -> 18         0.18543
       9 -> 19         0.37869
      10 -> 22        -0.27078
      12 -> 24         0.17535
      13 -> 30        -0.22101

 Excited State  58:      Singlet-A'    15.5531 eV   79.72 nm  f=0.0087  <S**2>=0.000
       7 -> 15        -0.14745
       8 -> 18        -0.20670
       8 -> 20        -0.17328
       9 -> 19         0.26055
       9 -> 21         0.44736
      10 -> 22        -0.10506
      12 -> 24        -0.13603
      13 -> 29         0.15739
      13 -> 30         0.19250

 Excited State  59:      Singlet-A"    15.5880 eV   79.54 nm  f=0.0121  <S**2>=0.000
       8 -> 19         0.35723
       8 -> 22         0.11115
      10 -> 23         0.27722
      11 -> 24         0.32082
      12 -> 23        -0.23120
      12 -> 25        -0.26926
      13 -> 28         0.12843

 Excited State  60:      Singlet-A'    15.6111 eV   79.42 nm  f=0.0966  <S**2>=0.000
       8 -> 17         0.24150
       8 -> 20        -0.16026
       9 -> 19         0.39902
       9 -> 21        -0.17003
      10 -> 22         0.32840
      12 -> 22        -0.15439
      12 -> 24         0.19392

 Excited State  61:      Singlet-A'    15.6433 eV   79.26 nm  f=0.0096  <S**2>=0.000
       9 -> 21         0.13303
      10 -> 22         0.25052
      11 -> 23         0.35009
      12 -> 24        -0.24544
      13 -> 29        -0.29073
      13 -> 30        -0.31229

 Excited State  62:      Singlet-A'    15.7617 eV   78.66 nm  f=0.0422  <S**2>=0.000
       8 -> 20         0.31920
       9 -> 21        -0.15259
      10 -> 24         0.10381
      11 -> 23         0.25074
      12 -> 24        -0.10112
      13 -> 29         0.47788

 Excited State  63:      Singlet-A"    15.7954 eV   78.49 nm  f=0.0008  <S**2>=0.000
       7 -> 16         0.18862
       8 -> 19         0.38683
       9 -> 20        -0.15294
      10 -> 25         0.15603
      11 -> 24        -0.33133
      12 -> 23         0.24962
      12 -> 25        -0.17950

 Excited State  64:      Singlet-A"    15.8049 eV   78.45 nm  f=0.0367  <S**2>=0.000
       7 -> 16         0.61395
       8 -> 19        -0.13952
      11 -> 24         0.20277
      12 -> 25        -0.11284

 Excited State  65:      Singlet-A'    15.8549 eV   78.20 nm  f=0.2226  <S**2>=0.000
       7 -> 15        -0.10157
       7 -> 17        -0.10444
       8 -> 20         0.40009
      10 -> 19         0.10257
      11 -> 23         0.14926
      12 -> 24         0.13006
      13 -> 29        -0.29688
      13 -> 30         0.33677

 Excited State  66:      Singlet-A'    15.9408 eV   77.78 nm  f=0.3754  <S**2>=0.000
       7 -> 17         0.10108
       7 -> 18         0.23622
       8 -> 20         0.14993
       9 -> 21         0.35475
      10 -> 22         0.26680
      11 -> 23        -0.14101
      12 -> 24         0.29442
      13 -> 29         0.14872
      13 -> 30        -0.17762

 Excited State  67:      Singlet-A"    16.0413 eV   77.29 nm  f=0.0336  <S**2>=0.000
       7 -> 16         0.11986
       7 -> 19         0.15286
       8 -> 19         0.11421
       8 -> 21         0.31871
      10 -> 23         0.33476
      12 -> 25         0.43244

 Excited State  68:      Singlet-A"    16.1161 eV   76.93 nm  f=0.0004  <S**2>=0.000
       8 -> 21         0.58525
      10 -> 23        -0.24531
      12 -> 23        -0.12205
      12 -> 25        -0.16548

 Excited State  69:      Singlet-A'    16.2254 eV   76.41 nm  f=0.0592  <S**2>=0.000
       7 -> 17         0.56409
       9 -> 21        -0.11577
      10 -> 22         0.10973
      10 -> 24        -0.19162
      11 -> 23         0.10866
      11 -> 25         0.21344
      12 -> 22         0.12033

 Excited State  70:      Singlet-A"    16.3051 eV   76.04 nm  f=0.0080  <S**2>=0.000
       8 -> 19        -0.28519
      10 -> 23         0.41083
      11 -> 24        -0.32640
      12 -> 25        -0.29051

 Excited State  71:      Singlet-A'    16.3343 eV   75.90 nm  f=0.0697  <S**2>=0.000
       7 -> 18         0.61864
       8 -> 20        -0.11543
       9 -> 21        -0.12874
      10 -> 22        -0.10006
      12 -> 24        -0.15819

 Excited State  72:      Singlet-A'    16.4547 eV   75.35 nm  f=0.0389  <S**2>=0.000
       7 -> 17        -0.12359
       7 -> 20         0.15894
       9 -> 24        -0.11340
      10 -> 24         0.21146
      11 -> 25         0.56341
      12 -> 24         0.10748
      13 -> 30        -0.12692

 Excited State  73:      Singlet-A'    16.5172 eV   75.06 nm  f=0.0484  <S**2>=0.000
       7 -> 17         0.19955
       7 -> 18        -0.10805
       7 -> 20         0.12971
       9 -> 22        -0.26928
      10 -> 24         0.46228
      11 -> 23        -0.12660
      11 -> 25        -0.13983
      12 -> 26         0.19768

 Excited State  74:      Singlet-A'    16.7941 eV   73.83 nm  f=0.0339  <S**2>=0.000
       7 -> 20        -0.16651
       9 -> 22         0.55934
      10 -> 24         0.24277
      12 -> 26         0.14881
      13 -> 31         0.13712
      13 -> 35        -0.10306

 Excited State  75:      Singlet-A"    16.8948 eV   73.39 nm  f=0.1041  <S**2>=0.000
       7 -> 19         0.24045
       8 -> 19        -0.16113
       8 -> 22         0.33464
       9 -> 23        -0.11682
      10 -> 25         0.42527
      11 -> 26         0.22081

 Excited State  76:      Singlet-A"    17.0104 eV   72.89 nm  f=0.0001  <S**2>=0.000
       7 -> 19         0.44698
       7 -> 21         0.19301
       8 -> 22        -0.41567
      12 -> 25        -0.15425
      13 -> 32        -0.11859

 Excited State  77:      Singlet-A'    17.0345 eV   72.78 nm  f=0.1047  <S**2>=0.000
       7 -> 20         0.55835
       9 -> 22         0.18185
      10 -> 24        -0.10001
      12 -> 26        -0.14830
      13 -> 31         0.17517
      13 -> 35        -0.17294

 Excited State  78:      Singlet-A"    17.0768 eV   72.60 nm  f=0.0162  <S**2>=0.000
       7 -> 19         0.36054
       7 -> 21         0.11383
       8 -> 22         0.30908
       8 -> 24        -0.11151
       9 -> 23        -0.14606
      10 -> 23        -0.12017
      10 -> 25        -0.34079
      11 -> 26        -0.20244

 Excited State  79:      Singlet-A"    17.1686 eV   72.22 nm  f=0.0104  <S**2>=0.000
       7 -> 21        -0.25048
      10 -> 25        -0.28070
      11 -> 26         0.49379
      12 -> 27        -0.20438

 Excited State  80:      Singlet-A'    17.3060 eV   71.64 nm  f=0.0050  <S**2>=0.000
       7 -> 20        -0.16784

 The electronic state is 1-A'.
 Alpha  occ. eigenvalues --  -14.41383 -10.29432 -10.29431  -1.00022  -0.79673
 Alpha  occ. eigenvalues --   -0.72111  -0.57781  -0.53041  -0.52096  -0.46932
 Alpha  occ. eigenvalues --   -0.44714  -0.44393  -0.30373
 Alpha virt. eigenvalues --    0.11216   0.15089   0.16111   0.17973   0.18937
 Alpha virt. eigenvalues --    0.21220   0.22029   0.22811   0.26650   0.30021
 Alpha virt. eigenvalues --    0.30528   0.32302   0.37948   0.40636   0.40945

 Mulliken charges:
               1
     1  C   -0.242175
     2  N   -0.353363
     3  C   -0.242175
     4  H    0.119294
     5  H    0.087775
     6  H    0.113216
     7  H    0.197143
     8  H    0.113216
     9  H    0.087775
    10  H    0.119294
 Sum of Mulliken charges =   0.00000

 Dipole moment (field-independent basis, Debye):
    X=              0.9406    Y=             -0.3270    Z=              0.0000  Tot=              0.9958
 Quadrupole moment (field-independent basis, Debye-Ang):
   XX=            -20.7989   YY=            -21.3369   ZZ=            -19.7522
   XY=              2.1618   XZ=             -0.0000   YZ=              0.0000

 Normal termination of Gaussian 16 at Sat Aug 14 06:24:26 2021.
