 Gaussian 16, Revision C.01,
 Gaussian 16:  EM64L-G16RevC.01  3-Jul-2019

 ----------------------------------------------------------------------
 #P TD(Nstates=10000) wB97XD/def2TZVP SCF(maxcycles=100) Int(Grid=ultra
 fine)
 ----------------------------------------------------------------------

 ---------------------
 xGDB7_00001_tier4.com
 ---------------------
 Symbolic Z-matrix:
 Charge =  0 Multiplicity = 1

                         Standard orientation:
 ---------------------------------------------------------------------
 Center     Atomic      Atomic             Coordinates (Angstroms)
 Number     Number       Type             X           Y           Z
 ---------------------------------------------------------------------
      1          9           0        0.000000    0.000000    0.091801
      2          1           0        0.000000    0.000000   -0.826212
 ---------------------------------------------------------------------

 SCF Done:  E(RwB97XD) =  -100.462986376     A.U. after   11 cycles

 Excitation energies and oscillator strengths:

 Excited state symmetry could not be determined.
 Excited State   1:      Singlet-?Sym   10.4637 eV  118.49 nm  f=0.0266  <S**2>=0.000
       4 ->  6         0.68381
       5 ->  6         0.17104
 This state for optimization and/or second-order correction.
 Total Energy, E(TD-HF/TD-DFT) =  -100.078454297
 Copying the excited state density for this state as the 1-particle RhoCI density.

 Excited state symmetry could not be determined.
 Excited State   2:      Singlet-?Sym   10.4637 eV  118.49 nm  f=0.0266  <S**2>=0.000
       4 ->  6        -0.17104
       5 ->  6         0.68381

 Excited State   3:      Singlet-SG    14.7267 eV   84.19 nm  f=0.2292  <S**2>=0.000
       3 ->  6         0.70208

 Excited state symmetry could not be determined.
 Excited State   4:      Singlet-?Sym   19.8394 eV   62.49 nm  f=0.0566  <S**2>=0.000
       5 ->  7         0.70127

 Excited state symmetry could not be determined.
 Excited State   5:      Singlet-?Sym   19.8394 eV   62.49 nm  f=0.0566  <S**2>=0.000
       4 ->  7         0.70127

 Excited state symmetry could not be determined.
 Excited State   6:      Singlet-?Sym   23.2572 eV   53.31 nm  f=0.0000  <S**2>=0.000
       4 ->  9         0.50002
       5 ->  8         0.50002

 Excited state symmetry could not be determined.
 Excited State   7:      Singlet-?Sym   23.2572 eV   53.31 nm  f=0.0000  <S**2>=0.000
       4 ->  8         0.50002
       5 ->  9        -0.50002

 Excited state symmetry could not be determined.
 Excited State   8:      Singlet-?Sym   23.4490 eV   52.87 nm  f=0.0000  <S**2>=0.000
       4 ->  9        -0.49996
       5 ->  8         0.49996

 Excited state symmetry could not be determined.
 Excited State   9:      Singlet-?Sym   23.7833 eV   52.13 nm  f=0.0221  <S**2>=0.000
       4 -> 10         0.16998
       5 -> 10         0.68319

 Excited state symmetry could not be determined.
 Excited State  10:      Singlet-?Sym   23.7833 eV   52.13 nm  f=0.0221  <S**2>=0.000
       4 -> 10         0.68319
       5 -> 10        -0.16998

 Excited State  11:      Singlet-SG    24.5018 eV   50.60 nm  f=0.1197  <S**2>=0.000
       3 ->  7         0.55659
       3 -> 10        -0.14959
       4 ->  8         0.28699
       5 ->  9         0.28699

 Excited State  12:      Singlet-SG    26.4907 eV   46.80 nm  f=0.2460  <S**2>=0.000
       3 ->  7         0.38273
       3 -> 10         0.47472
       4 ->  8        -0.24398
       5 ->  9        -0.24398

 Excited state symmetry could not be determined.
 Excited State  13:      Singlet-?Sym   27.2610 eV   45.48 nm  f=0.0000  <S**2>=0.000
       3 ->  8         0.70678

 Excited state symmetry could not be determined.
 Excited State  14:      Singlet-?Sym   27.2610 eV   45.48 nm  f=0.0000  <S**2>=0.000
       3 ->  9         0.70678

 Excited state symmetry could not be determined.
 Excited State  15:      Singlet-?Sym   28.7317 eV   43.15 nm  f=0.1652  <S**2>=0.000
       5 -> 11         0.70056

 Excited state symmetry could not be determined.
 Excited State  16:      Singlet-?Sym   28.7317 eV   43.15 nm  f=0.1652  <S**2>=0.000
       4 -> 11         0.70056

 Excited State  17:      Singlet-SG    30.8668 eV   40.17 nm  f=0.0178  <S**2>=0.000
       2 ->  6        -0.39280
       3 ->  7        -0.15283
       3 -> 10         0.44019
       4 ->  8         0.24243
       5 ->  9         0.24243

 Excited State  18:      Singlet-SG    32.1597 eV   38.55 nm  f=0.0083  <S**2>=0.000
       2 ->  6         0.21343
       3 -> 11         0.66443

 Excited State  19:      Singlet-SG    34.3599 eV   36.08 nm  f=0.0107  <S**2>=0.000
       2 ->  6         0.54263
       3 ->  7        -0.12220
       3 -> 10         0.21967
       3 -> 11        -0.23417
       4 ->  8         0.19882
       5 ->  9         0.19882

 Excited State  20:      Singlet-SG    42.3385 eV   29.28 nm  f=0.0515  <S**2>=0.000
       2 ->  7         0.69639

 Excited state symmetry could not be determined.
 Excited State  21:      Singlet-?Sym   45.6064 eV   27.19 nm  f=0.0000  <S**2>=0.000
       4 -> 13        -0.49992
       5 -> 12         0.49992

 Excited state symmetry could not be determined.
 Excited State  22:      Singlet-?Sym   45.6064 eV   27.19 nm  f=0.0000  <S**2>=0.000
       4 -> 12         0.49992
       5 -> 13         0.49992

 Excited state symmetry could not be determined.
 Excited State  23:      Singlet-?Sym   45.7049 eV   27.13 nm  f=0.0000  <S**2>=0.000
       4 -> 12         0.49986
       5 -> 13        -0.49986

 Excited state symmetry could not be determined.
 Excited State  24:      Singlet-?Sym   45.7882 eV   27.08 nm  f=0.1300  <S**2>=0.000
       2 ->  8         0.69206
       2 ->  9        -0.12072

 Excited state symmetry could not be determined.
 Excited State  25:      Singlet-?Sym   45.7882 eV   27.08 nm  f=0.1300  <S**2>=0.000
       2 ->  8         0.12072
       2 ->  9         0.69206

 Excited State  26:      Singlet-SG    45.9892 eV   26.96 nm  f=0.2119  <S**2>=0.000
       2 -> 10         0.65620
       4 -> 13        -0.17768
       5 -> 12        -0.17768

 Excited state symmetry could not be determined.
 Excited State  27:      Singlet-?Sym   48.5342 eV   25.55 nm  f=0.6318  <S**2>=0.000
       2 -> 10         0.24251
       3 -> 14        -0.11541
       4 -> 13         0.45533
       5 -> 12         0.45533

 Excited state symmetry could not be determined.
 Excited State  28:      Singlet-?Sym   50.3152 eV   24.64 nm  f=0.2557  <S**2>=0.000
       3 -> 12         0.66031
       3 -> 13         0.21336

 Excited state symmetry could not be determined.
 Excited State  29:      Singlet-?Sym   50.3152 eV   24.64 nm  f=0.2557  <S**2>=0.000
       3 -> 12        -0.21336
       3 -> 13         0.66031

 Excited State  30:      Singlet-SG    51.8545 eV   23.91 nm  f=0.0510  <S**2>=0.000
       2 -> 11         0.69081

 Excited state symmetry could not be determined.
 Excited State  31:      Singlet-?Sym   57.9330 eV   21.40 nm  f=0.0000  <S**2>=0.000
       4 -> 14         0.65092
       5 -> 14         0.24670

 Excited state symmetry could not be determined.
 Excited State  32:      Singlet-?Sym   57.9330 eV   21.40 nm  f=0.0000  <S**2>=0.000
       4 -> 14        -0.24670
       5 -> 14         0.65092

 Excited state symmetry could not be determined.
 Excited State  33:      Singlet-?Sym   61.0390 eV   20.31 nm  f=0.0000  <S**2>=0.000
       4 -> 15         0.34084
       4 -> 16         0.36582
       5 -> 15         0.36582
       5 -> 16        -0.34084

 Excited state symmetry could not be determined.
 Excited State  34:      Singlet-?Sym   61.0390 eV   20.31 nm  f=0.0000  <S**2>=0.000
       4 -> 15         0.36582
       4 -> 16        -0.34084
       5 -> 15        -0.34084
       5 -> 16        -0.36582

 Excited State  35:      Singlet-SG    63.2764 eV   19.59 nm  f=0.1246  <S**2>=0.000
       3 -> 14         0.69134

 Excited state symmetry could not be determined.
 Excited State  36:      Singlet-?Sym   65.0449 eV   19.06 nm  f=0.0000  <S**2>=0.000
       3 -> 15         0.70705

 Excited state symmetry could not be determined.
 Excited State  37:      Singlet-?Sym   65.0449 eV   19.06 nm  f=0.0000  <S**2>=0.000
       3 -> 16         0.70705

 Excited state symmetry could not be determined.
 Excited State  38:      Singlet-?Sym   66.3404 eV   18.69 nm  f=1.1434  <S**2>=0.000
       2 -> 13        -0.17457
       3 -> 13        -0.10576
       3 -> 19        -0.12039
       4 -> 14         0.10874
       4 -> 15         0.45216
       4 -> 17         0.14549
       5 -> 16         0.45216

 Excited state symmetry could not be determined.
 Excited State  39:      Singlet-?Sym   66.3404 eV   18.69 nm  f=1.1434  <S**2>=0.000
       2 -> 12         0.17457
       3 -> 12         0.10576
       3 -> 18         0.12039
       4 -> 16        -0.45216
       5 -> 14        -0.10874
       5 -> 15         0.45216
       5 -> 17        -0.14549

 Excited state symmetry could not be determined.
 Excited State  40:      Singlet-?Sym   68.0482 eV   18.22 nm  f=0.1857  <S**2>=0.000
       2 -> 12         0.68339
       4 -> 16         0.11050
       5 -> 15        -0.11050

 Excited state symmetry could not be determined.
 Excited State  41:      Singlet-?Sym   68.0482 eV   18.22 nm  f=0.1857  <S**2>=0.000
       2 -> 13         0.68339
       4 -> 15         0.11050
       5 -> 16         0.11050

 Excited state symmetry could not be determined.
 Excited State  42:      Singlet-?Sym   70.9899 eV   17.47 nm  f=0.1492  <S**2>=0.000
       3 -> 18         0.10387
       5 -> 17         0.68562

 Excited state symmetry could not be determined.
 Excited State  43:      Singlet-?Sym   70.9899 eV   17.47 nm  f=0.1492  <S**2>=0.000
       3 -> 19         0.10387
       4 -> 17         0.68562

 Excited State  44:      Singlet-SG    73.3629 eV   16.90 nm  f=0.0003  <S**2>=0.000
       3 -> 17         0.65113
       4 -> 19        -0.19259
       5 -> 18        -0.19259

 Excited state symmetry could not be determined.
 Excited State  45:      Singlet-?Sym   74.2456 eV   16.70 nm  f=0.0000  <S**2>=0.000
       4 -> 19        -0.49985
       5 -> 18         0.49985

 Excited state symmetry could not be determined.
 Excited State  46:      Singlet-?Sym   74.2456 eV   16.70 nm  f=0.0000  <S**2>=0.000
       4 -> 18         0.49985
       5 -> 19         0.49985

 Excited state symmetry could not be determined.
 Excited State  47:      Singlet-?Sym   74.4181 eV   16.66 nm  f=0.0000  <S**2>=0.000
       4 -> 18         0.49986
       5 -> 19        -0.49986

 Excited state symmetry could not be determined.
 Excited State  48:      Singlet-?Sym   78.4374 eV   15.81 nm  f=0.5872  <S**2>=0.000
       3 -> 17         0.26650
       3 -> 20        -0.10329
       4 -> 19         0.44969
       5 -> 18         0.44969

 Excited state symmetry could not be determined.
 Excited State  49:      Singlet-?Sym   79.6442 eV   15.57 nm  f=0.3866  <S**2>=0.000
       3 -> 18         0.67579
       3 -> 19        -0.10816

 Excited state symmetry could not be determined.
 Excited State  50:      Singlet-?Sym   79.6442 eV   15.57 nm  f=0.3866  <S**2>=0.000
       3 -> 18         0.10816
       3 -> 19         0.67579

 Excited State  51:      Singlet-SG    80.4358 eV   15.41 nm  f=0.0111  <S**2>=0.000
       2 -> 14         0.70456

 Excited state symmetry could not be determined.
 Excited State  52:      Singlet-?Sym   83.9658 eV   14.77 nm  f=0.0000  <S**2>=0.000
       2 -> 15         0.70643

 Excited state symmetry could not be determined.
 Excited State  53:      Singlet-?Sym   83.9658 eV   14.77 nm  f=0.0000  <S**2>=0.000
       2 -> 16         0.70643

 Excited state symmetry could not be determined.
 Excited State  54:      Singlet-?Sym   85.8083 eV   14.45 nm  f=0.0797  <S**2>=0.000
       4 -> 20         0.38824
       5 -> 20         0.58546

 Excited state symmetry could not be determined.
 Excited State  55:      Singlet-?Sym   85.8083 eV   14.45 nm  f=0.0797  <S**2>=0.000
       4 -> 20         0.58546
       5 -> 20        -0.38824

 Excited State  56:      Singlet-SG    90.3962 eV   13.72 nm  f=0.1809  <S**2>=0.000
       3 -> 20         0.65250
       4 -> 22        -0.17020
       5 -> 21        -0.17020

 Excited State  57:      Singlet-SG    92.3622 eV   13.42 nm  f=0.0079  <S**2>=0.000
       2 -> 17         0.70031

 Excited state symmetry could not be determined.
 Excited State  58:      Singlet-?Sym   93.1051 eV   13.32 nm  f=0.0000  <S**2>=0.000
       4 -> 21         0.49957
       5 -> 22         0.49957

 Excited state symmetry could not be determined.
 Excited State  59:      Singlet-?Sym   93.1051 eV   13.32 nm  f=0.0000  <S**2>=0.000
       4 -> 22        -0.49957
       5 -> 21         0.49957

 Excited state symmetry could not be determined.
 Excited State  60:      Singlet-?Sym   93.4192 eV   13.27 nm  f=0.0000  <S**2>=0.000
       4 -> 21         0.49994
       5 -> 22        -0.49994

 Excited state symmetry could not be determined.
 Excited State  61:      Singlet-?Sym   96.5320 eV   12.84 nm  f=0.0049  <S**2>=0.000
       2 -> 18         0.62662
       3 -> 21         0.31502

 Excited state symmetry could not be determined.
 Excited State  62:      Singlet-?Sym   96.5320 eV   12.84 nm  f=0.0049  <S**2>=0.000
       2 -> 19         0.62662
       3 -> 22         0.31502

 Excited state symmetry could not be determined.
 Excited State  63:      Singlet-?Sym   97.4622 eV   12.72 nm  f=0.0217  <S**2>=0.000
       2 -> 18        -0.29875
       2 -> 19         0.10720
       3 -> 21         0.59462
       3 -> 22        -0.21337

 Excited state symmetry could not be determined.
 Excited State  64:      Singlet-?Sym   97.4622 eV   12.72 nm  f=0.0217  <S**2>=0.000
       2 -> 18        -0.10720
       2 -> 19        -0.29875
       3 -> 21         0.21337
       3 -> 22         0.59462

 Excited state symmetry could not be determined.
 Excited State  65:      Singlet-?Sym  101.7499 eV   12.19 nm  f=0.0043  <S**2>=0.000
       3 -> 20         0.20549
       3 -> 23        -0.31674
       4 -> 22         0.40848
       5 -> 21         0.40848

 Excited state symmetry could not be determined.
 Excited State  66:      Singlet-?Sym  102.7669 eV   12.06 nm  f=0.0216  <S**2>=0.000
       4 -> 23         0.59002
       5 -> 23         0.38917

 Excited state symmetry could not be determined.
 Excited State  67:      Singlet-?Sym  102.7669 eV   12.06 nm  f=0.0216  <S**2>=0.000
       4 -> 23        -0.38917
       5 -> 23         0.59002

 Excited State  68:      Singlet-SG   107.7313 eV   11.51 nm  f=0.0914  <S**2>=0.000
       2 -> 20         0.62397
       3 -> 23         0.32466

 Excited State  69:      Singlet-SG   110.5306 eV   11.22 nm  f=0.0013  <S**2>=0.000
       2 -> 20        -0.31403
       2 -> 23        -0.13193
       3 -> 23         0.53659
       4 -> 22         0.20197
       5 -> 21         0.20197

 Excited state symmetry could not be determined.
 Excited State  70:      Singlet-?Sym  115.4614 eV   10.74 nm  f=0.1774  <S**2>=0.000
       2 -> 21         0.67829
       2 -> 22         0.19931

 Excited state symmetry could not be determined.
 Excited State  71:      Singlet-?Sym  115.4614 eV   10.74 nm  f=0.1774  <S**2>=0.000
       2 -> 21        -0.19931
       2 -> 22         0.67829

 Excited State  72:      Singlet-SG   127.1787 eV    9.75 nm  f=0.0305  <S**2>=0.000
       2 -> 23         0.68289
       3 -> 24         0.10425

 Excited state symmetry could not be determined.
 Excited State  73:      Singlet-?Sym  131.6003 eV    9.42 nm  f=0.0000  <S**2>=0.000
       4 -> 24         0.60560
       5 -> 24        -0.36450

 Excited state symmetry could not be determined.
 Excited State  74:      Singlet-?Sym  131.6003 eV    9.42 nm  f=0.0000  <S**2>=0.000
       4 -> 24         0.36450
       5 -> 24         0.60560

 Excited State  75:      Singlet-SG   135.3839 eV    9.16 nm  f=0.0046  <S**2>=0.000
       3 -> 24         0.69771

 Excited State  76:      Singlet-SG   153.8973 eV    8.06 nm  f=0.0336  <S**2>=0.000
       2 -> 24         0.70475

 Excited state symmetry could not be determined.
 Excited State  77:      Singlet-?Sym  192.3147 eV    6.45 nm  f=0.0000  <S**2>=0.000
       4 -> 25         0.49467
       5 -> 26        -0.49466

 Excited state symmetry could not be determined.
 Excited State  78:      Singlet-?Sym  192.3147 eV    6.45 nm  f=0.0000  <S**2>=0.000
       4 -> 26         0.49466
       5 -> 25         0.49467

 Excited state symmetry could not be determined.
 Excited State  79:      Singlet-?Sym  193.0452 eV    6.42 nm  f=0.0000  <S**2>=0.000
       4 -> 28         0.50000
       5 -> 27         0.50000

 Excited state symmetry could not be determined.
 Excited State  80:      Singlet-?Sym  193.0452 eV    6.42 nm  f=0.0000  <S**2>=0.000
       4 -> 27         0.50000
       5 -> 28        -0.50000

 Excited state symmetry could not be determined.
 Excited State  81:      Singlet-?Sym  194.4713 eV    6.38 nm  f=0.0010  <S**2>=0.000
       3 -> 30        -0.11556
       4 -> 25         0.48242
       4 -> 26        -0.10049
       5 -> 25         0.10049
       5 -> 26         0.48243

 Excited state symmetry could not be determined.
 Excited State  82:      Singlet-?Sym  194.4713 eV    6.38 nm  f=0.0010  <S**2>=0.000
       3 -> 29        -0.11556
       4 -> 25         0.10049
       4 -> 26         0.48243
       5 -> 25        -0.48242
       5 -> 26         0.10049

 Excited state symmetry could not be determined.
 Excited State  83:      Singlet-?Sym  195.6162 eV    6.34 nm  f=0.0000  <S**2>=0.000
       3 -> 25         0.42342
       4 -> 27        -0.39672
       5 -> 28        -0.39672

 Excited state symmetry could not be determined.
 Excited State  84:      Singlet-?Sym  195.6162 eV    6.34 nm  f=0.0000  <S**2>=0.000
       3 -> 26         0.42342
       4 -> 28        -0.39672
       5 -> 27         0.39672

 Excited state symmetry could not be determined.
 Excited State  85:      Singlet-?Sym  197.0669 eV    6.29 nm  f=0.0000  <S**2>=0.000
       3 -> 26         0.29333
       4 -> 28         0.21140
       4 -> 29         0.40280
       5 -> 27        -0.21140
       5 -> 30         0.40280

 Excited state symmetry could not be determined.
 Excited State  86:      Singlet-?Sym  197.0670 eV    6.29 nm  f=0.0000  <S**2>=0.000
       3 -> 25        -0.29333
       4 -> 27        -0.21139
       4 -> 30        -0.40280
       5 -> 28        -0.21139
       5 -> 29         0.40280

 Excited state symmetry could not be determined.
 Excited State  87:      Singlet-?Sym  198.1531 eV    6.26 nm  f=0.0000  <S**2>=0.000
       3 -> 27         0.67169
       3 -> 28        -0.21128

 Excited state symmetry could not be determined.
 Excited State  88:      Singlet-?Sym  198.1531 eV    6.26 nm  f=0.0000  <S**2>=0.000
       3 -> 27         0.21128
       3 -> 28         0.67169

 Excited state symmetry could not be determined.
 Excited State  89:      Singlet-?Sym  198.2405 eV    6.25 nm  f=0.0000  <S**2>=0.000
       4 -> 29        -0.49999
       5 -> 30         0.49999

 Excited state symmetry could not be determined.
 Excited State  90:      Singlet-?Sym  198.8978 eV    6.23 nm  f=0.0000  <S**2>=0.000
       3 -> 25         0.48417
       4 -> 27         0.21841
       4 -> 30        -0.29119
       5 -> 28         0.21841
       5 -> 29         0.29119

 Excited state symmetry could not be determined.
 Excited State  91:      Singlet-?Sym  198.8978 eV    6.23 nm  f=0.0000  <S**2>=0.000
       3 -> 26         0.48417
       4 -> 28         0.21841
       4 -> 29        -0.29119
       5 -> 27        -0.21841
       5 -> 30        -0.29119

 Excited state symmetry could not be determined.
 Excited State  92:      Singlet-?Sym  199.2853 eV    6.22 nm  f=0.0027  <S**2>=0.000
       4 -> 30         0.49640
       5 -> 29         0.49640

 Excited state symmetry could not be determined.
 Excited State  93:      Singlet-?Sym  202.4979 eV    6.12 nm  f=0.0001  <S**2>=0.000
       3 -> 29        -0.20869
       3 -> 30         0.65846

 Excited state symmetry could not be determined.
 Excited State  94:      Singlet-?Sym  202.4979 eV    6.12 nm  f=0.0001  <S**2>=0.000
       3 -> 29         0.65846
       3 -> 30         0.20869

 Excited state symmetry could not be determined.
 Excited State  95:      Singlet-?Sym  210.5150 eV    5.89 nm  f=0.0023  <S**2>=0.000
       5 -> 31         0.69843

 Excited state symmetry could not be determined.
 Excited State  96:      Singlet-?Sym  210.5150 eV    5.89 nm  f=0.0023  <S**2>=0.000
       4 -> 31         0.69843

 Excited State  97:      Singlet-SG   214.7943 eV    5.77 nm  f=0.0064  <S**2>=0.000
       3 -> 31         0.70006

 Excited state symmetry could not be determined.
 Excited State  98:      Singlet-?Sym  215.0279 eV    5.77 nm  f=0.0000  <S**2>=0.000
       2 -> 25         0.70690

 Excited state symmetry could not be determined.
 Excited State  99:      Singlet-?Sym  215.0279 eV    5.77 nm  f=0.0000  <S**2>=0.000
       2 -> 26         0.70690

 Excited state symmetry could not be determined.
 Excited State 100:      Singlet-?Sym  215.9974 eV    5.74 nm  f=0.0000  <S**2>=0.000
       2 -> 27         0.69874
       2 -> 28        -0.10817

 Excited state symmetry could not be determined.
 Excited State 101:      Singlet-?Sym  215.9974 eV    5.74 nm  f=0.0000  <S**2>=0.000
       2 -> 27         0.10817
       2 -> 28         0.69874

 Excited state symmetry could not be determined.
 Excited State 102:      Singlet-?Sym  220.0688 eV    5.63 nm  f=0.0006  <S**2>=0.000
       2 -> 30         0.70522

 Excited state symmetry could not be determined.
 Excited State 103:      Singlet-?Sym  220.0688 eV    5.63 nm  f=0.0006  <S**2>=0.000
       2 -> 29         0.70522

 Excited state symmetry could not be determined.
 Excited State 104:      Singlet-?Sym  230.2096 eV    5.39 nm  f=0.0000  <S**2>=0.000
       4 -> 32        -0.25047
       4 -> 33        -0.43274
       5 -> 32         0.43274
       5 -> 33        -0.25047

 Excited state symmetry could not be determined.
 Excited State 105:      Singlet-?Sym  230.2096 eV    5.39 nm  f=0.0000  <S**2>=0.000
       4 -> 32         0.43274
       4 -> 33        -0.25047
       5 -> 32         0.25047
       5 -> 33         0.43274

 Excited State 106:      Singlet-SG   232.4744 eV    5.33 nm  f=0.0018  <S**2>=0.000
       2 -> 31         0.70460

 Excited state symmetry could not be determined.
 Excited State 107:      Singlet-?Sym  234.5725 eV    5.29 nm  f=0.0047  <S**2>=0.000
       3 -> 34        -0.24438
       3 -> 35         0.15927
       4 -> 32         0.38061
       4 -> 33        -0.24807
       5 -> 32        -0.24807
       5 -> 33        -0.38061

 Excited state symmetry could not be determined.
 Excited State 108:      Singlet-?Sym  234.5725 eV    5.29 nm  f=0.0047  <S**2>=0.000
       3 -> 34        -0.15927
       3 -> 35        -0.24438
       4 -> 32         0.24807
       4 -> 33         0.38061
       5 -> 32         0.38061
       5 -> 33        -0.24807

 Excited state symmetry could not be determined.
 Excited State 109:      Singlet-?Sym  234.6565 eV    5.28 nm  f=0.0000  <S**2>=0.000
       3 -> 32         0.56983
       4 -> 34         0.29600
       5 -> 35         0.29600

 Excited state symmetry could not be determined.
 Excited State 110:      Singlet-?Sym  234.6566 eV    5.28 nm  f=0.0000  <S**2>=0.000
       3 -> 33         0.56984
       4 -> 35         0.29599
       5 -> 34        -0.29599

 Excited state symmetry could not be determined.
 Excited State 111:      Singlet-?Sym  235.3796 eV    5.27 nm  f=0.0000  <S**2>=0.000
       3 -> 32         0.41854
       4 -> 34        -0.40295
       5 -> 35        -0.40295

 Excited state symmetry could not be determined.
 Excited State 112:      Singlet-?Sym  235.3796 eV    5.27 nm  f=0.0000  <S**2>=0.000
       3 -> 33         0.41853
       4 -> 35        -0.40295
       5 -> 34         0.40295

 Excited state symmetry could not be determined.
 Excited State 113:      Singlet-?Sym  235.7228 eV    5.26 nm  f=0.0000  <S**2>=0.000
       4 -> 34         0.49999

 The electronic state is 1-SG.
 Alpha  occ. eigenvalues --  -24.79574  -1.30090  -0.63839  -0.50154  -0.50154
 Alpha virt. eigenvalues --    0.10570   0.47333   0.62421   0.62421   0.63144
 Alpha virt. eigenvalues --    0.79908   1.45463   1.45463   1.89858   2.04928
 Alpha virt. eigenvalues --    2.04928   2.36118   2.52537   2.52537   2.96347

 Mulliken charges:
               1
     1  F   -0.407762
     2  H    0.407762
 Sum of Mulliken charges =   0.00000

 Dipole moment (field-independent basis, Debye):
    X=              0.0000    Y=              0.0000    Z=             -1.9334  Tot=              1.9334
 Quadrupole moment (field-independent basis, Debye-Ang):
   XX=             -5.6912   YY=             -5.6912   ZZ=             -3.6224
   XY=              0.0000   XZ=              0.0000   YZ=              0.0000

 1\1\GINC-HEL18\SP\RwB97XD TD-FC\def2TZVP\F1H1\PRAKRITI\14-Aug-2021\0\\
 #P TD(Nstates=10000) wB97XD/def2TZVP SCF(maxcycles=100) Int(Grid=ultra
 fine)\\xGDB7_00001_tier4.com\\0,1\F,0,0.,0.,0.091801\H,0,0.,0.,-0.8262
 12\\Version=EM64L-G16RevC.01\State=1-SG\HF=-100.4629864\RMSD=4.077e-09
 \PG=C*V [C*(H1F1)]\\@
 The archive entry for this job was punched.

 Normal termination of Gaussian 16 at Sat Aug 14 06:22:14 2021.
