 Gaussian 16, Revision C.01,
 Gaussian 16:  EM64L-G16RevC.01  3-Jul-2019

 ----------------------------------------------------------------------
 #P TD(Nstates=10000) wB97XD/def2TZVP SCF(maxcycles=100) Int(Grid=ultra
 fine)
 ----------------------------------------------------------------------

 ---------------------
 xGDB7_00001_tier4.com
 ---------------------
 Symbolic Z-matrix:
 Charge =  0 Multiplicity = 1

                         Standard orientation:
 ---------------------------------------------------------------------
 Center     Atomic      Atomic             Coordinates (Angstroms)
 Number     Number       Type             X           Y           Z
 ---------------------------------------------------------------------
      1          6           0        0.000000    0.000000   -1.173653
      2          6           0        0.000000    0.000000    0.280989
      3          7           0        0.000000    0.000000    1.427442
      4          1           0        0.000000    1.024088   -1.545371
      5          1           0       -0.886886   -0.512044   -1.545371
      6          1           0        0.886886   -0.512044   -1.545371
 ---------------------------------------------------------------------

 SCF Done:  E(RwB97XD) =  -132.756557905     A.U. after   14 cycles

 Excitation energies and oscillator strengths:

 Excited state symmetry could not be determined.
 Excited State   1:      Singlet-?Sym    7.9118 eV  156.71 nm  f=0.0000  <S**2>=0.000
      10 -> 13         0.48443
      10 -> 15        -0.10599
      11 -> 14         0.48443
      11 -> 16        -0.10599
 This state for optimization and/or second-order correction.
 Total Energy, E(TD-HF/TD-DFT) =  -132.465803367
 Copying the excited state density for this state as the 1-particle RhoCI density.

 Excited state symmetry could not be determined.
 Excited State   2:      Singlet-?Sym    8.2671 eV  149.97 nm  f=0.0018  <S**2>=0.000
      10 -> 14         0.48633
      11 -> 13         0.48633

 Excited state symmetry could not be determined.
 Excited State   3:      Singlet-?Sym    8.2671 eV  149.97 nm  f=0.0018  <S**2>=0.000
      10 -> 13         0.48633
      11 -> 14        -0.48633

 Excited State   4:      Singlet-E      9.4784 eV  130.81 nm  f=0.0030  <S**2>=0.000
      11 -> 12         0.68324
      11 -> 17        -0.15020

 Excited State   5:      Singlet-E      9.4784 eV  130.81 nm  f=0.0030  <S**2>=0.000
      10 -> 12         0.68324
      10 -> 17        -0.15019

 Excited State   6:      Singlet-E      9.6537 eV  128.43 nm  f=0.0203  <S**2>=0.000
       9 -> 14         0.68728
       9 -> 16        -0.14075

 Excited State   7:      Singlet-E      9.6537 eV  128.43 nm  f=0.0203  <S**2>=0.000
       9 -> 13         0.68728
       9 -> 15        -0.14075

 Excited State   8:      Singlet-A1    10.7697 eV  115.12 nm  f=0.0500  <S**2>=0.000
       9 -> 12         0.66546
       9 -> 17        -0.20038
       9 -> 18        -0.10866

 Excited state symmetry could not be determined.
 Excited State   9:      Singlet-?Sym   11.1334 eV  111.36 nm  f=0.7159  <S**2>=0.000
      10 -> 14        -0.42357
      10 -> 16        -0.23898
      11 -> 13         0.42357
      11 -> 15         0.23898

 Excited state symmetry could not be determined.
 Excited State  10:      Singlet-?Sym   11.7822 eV  105.23 nm  f=0.0000  <S**2>=0.000
       7 -> 14        -0.14989
       8 -> 13        -0.14990
      10 -> 13         0.11415
      10 -> 15         0.45971
      11 -> 14         0.11412
      11 -> 16         0.45958

 Excited State  11:      Singlet-E     11.7886 eV  105.17 nm  f=0.2020  <S**2>=0.000
       8 -> 12        -0.14634
      10 -> 16        -0.34227
      10 -> 17         0.43803
      10 -> 18         0.15168
      11 -> 15        -0.34227

 Excited State  12:      Singlet-E     11.7886 eV  105.17 nm  f=0.2021  <S**2>=0.000
       7 -> 12        -0.14636
      10 -> 15        -0.34207
      11 -> 16         0.34234
      11 -> 17         0.43812
      11 -> 18         0.15170

 Excited State  13:      Singlet-E     11.8537 eV  104.60 nm  f=0.0372  <S**2>=0.000
      10 -> 15         0.33476
      11 -> 12         0.12061
      11 -> 16        -0.33465
      11 -> 17         0.45692
      11 -> 18         0.14517

 Excited State  14:      Singlet-E     11.8537 eV  104.60 nm  f=0.0372  <S**2>=0.000
      10 -> 12         0.12063
      10 -> 16         0.33463
      10 -> 17         0.45702
      10 -> 18         0.14518
      11 -> 15         0.33464

 Excited State  15:      Singlet-E     12.3912 eV  100.06 nm  f=0.0023  <S**2>=0.000
       6 -> 13        -0.10202
      11 -> 17        -0.20777
      11 -> 18         0.64810

 Excited State  16:      Singlet-E     12.3912 eV  100.06 nm  f=0.0023  <S**2>=0.000
       6 -> 14         0.10202
      10 -> 17        -0.20776
      10 -> 18         0.64810

 Excited state symmetry could not be determined.
 Excited State  17:      Singlet-?Sym   12.5053 eV   99.15 nm  f=0.3251  <S**2>=0.000
       7 -> 13        -0.12651
       8 -> 14         0.12650
       9 -> 17        -0.24207
       9 -> 23         0.12979
      10 -> 14        -0.16616
      10 -> 16         0.39777
      11 -> 13         0.16616
      11 -> 15        -0.39777

 Excited state symmetry could not be determined.
 Excited State  18:      Singlet-?Sym   12.6572 eV   97.96 nm  f=0.0000  <S**2>=0.000
       7 -> 14         0.47127
       8 -> 13         0.47127
      10 -> 15         0.15768
      11 -> 16         0.15768

 Excited state symmetry could not be determined.
 Excited State  19:      Singlet-?Sym   12.8629 eV   96.39 nm  f=0.0011  <S**2>=0.000
       7 -> 13         0.44573
       8 -> 12         0.26290
       8 -> 14         0.44574

 Excited state symmetry could not be determined.
 Excited State  20:      Singlet-?Sym   12.8629 eV   96.39 nm  f=0.0011  <S**2>=0.000
       7 -> 12         0.26297
       7 -> 14        -0.44571
       8 -> 13         0.44572

 Excited State  21:      Singlet-E     12.9101 eV   96.04 nm  f=0.1566  <S**2>=0.000
       7 -> 13        -0.17649
       8 -> 12         0.62378
       8 -> 14        -0.17650
      10 -> 17         0.15368

 Excited State  22:      Singlet-E     12.9101 eV   96.04 nm  f=0.1566  <S**2>=0.000
       7 -> 12         0.62375
       7 -> 14         0.17655
       8 -> 13        -0.17654
      11 -> 17         0.15368

 Excited State  23:      Singlet-A1    13.1321 eV   94.41 nm  f=0.0065  <S**2>=0.000
       9 -> 12         0.21414
       9 -> 17         0.48027
       9 -> 18         0.41444

 Excited State  24:      Singlet-E     13.2777 eV   93.38 nm  f=0.0101  <S**2>=0.000
       9 -> 13         0.13841
       9 -> 15         0.68185

 Excited State  25:      Singlet-E     13.2777 eV   93.38 nm  f=0.0101  <S**2>=0.000
       9 -> 14         0.13841
       9 -> 16         0.68185

 Excited state symmetry could not be determined.
 Excited State  26:      Singlet-?Sym   13.6048 eV   91.13 nm  f=0.0228  <S**2>=0.000
       7 -> 13         0.42744
       8 -> 14        -0.42744
       9 -> 18         0.11961
      10 -> 20         0.16601
      11 -> 19         0.16602

 Excited State  27:      Singlet-A1    14.1125 eV   87.85 nm  f=0.4599  <S**2>=0.000
       9 -> 17        -0.38056
       9 -> 18         0.53142

 Excited state symmetry could not be determined.
 Excited State  28:      Singlet-?Sym   14.1568 eV   87.58 nm  f=0.0009  <S**2>=0.000
       6 -> 14         0.15166
      10 -> 20         0.44499
      10 -> 22         0.18551
      11 -> 19        -0.44499
      11 -> 21        -0.18552

 Excited state symmetry could not be determined.
 Excited State  29:      Singlet-?Sym   14.1568 eV   87.58 nm  f=0.0009  <S**2>=0.000
       6 -> 13         0.15166
      10 -> 19         0.44499
      10 -> 21         0.18552
      11 -> 20         0.44499
      11 -> 22         0.18551

 Excited state symmetry could not be determined.
 Excited State  30:      Singlet-?Sym   14.2048 eV   87.28 nm  f=0.0000  <S**2>=0.000
      10 -> 19        -0.47399
      10 -> 21        -0.14020
      11 -> 20         0.47399
      11 -> 22         0.14021

 Excited State  31:      Singlet-A1    14.2308 eV   87.12 nm  f=0.1633  <S**2>=0.000
       6 -> 12         0.62714
      10 -> 20        -0.16271
      11 -> 19        -0.16270

 Excited State  32:      Singlet-E     14.3597 eV   86.34 nm  f=0.0875  <S**2>=0.000
       6 -> 14         0.64351
      10 -> 18        -0.11217

 Excited State  33:      Singlet-E     14.3597 eV   86.34 nm  f=0.0875  <S**2>=0.000
       6 -> 13         0.64352
      11 -> 18         0.11217

 Excited state symmetry could not be determined.
 Excited State  34:      Singlet-?Sym   14.7096 eV   84.29 nm  f=0.0492  <S**2>=0.000
       6 -> 12         0.27180
       7 -> 13        -0.10080
       8 -> 14         0.10079
      10 -> 20         0.42178
      11 -> 19         0.42178

 Excited state symmetry could not be determined.
 Excited State  35:      Singlet-?Sym   14.9638 eV   82.86 nm  f=0.1000  <S**2>=0.000
       7 -> 16         0.43875
       8 -> 15        -0.43848
      10 -> 21         0.18385
      11 -> 22         0.18388

 Excited state symmetry could not be determined.
 Excited State  36:      Singlet-?Sym   14.9638 eV   82.86 nm  f=0.1000  <S**2>=0.000
       7 -> 15         0.43860
       8 -> 16         0.43862
      10 -> 22         0.18386
      11 -> 21        -0.18388

 Excited state symmetry could not be determined.
 Excited State  37:      Singlet-?Sym   15.0098 eV   82.60 nm  f=0.0000  <S**2>=0.000
       7 -> 16         0.48987
       8 -> 15         0.49010

 Excited State  38:      Singlet-E     15.1969 eV   81.59 nm  f=0.0322  <S**2>=0.000
       7 -> 17         0.54719
       7 -> 18        -0.28493
      10 -> 21        -0.11263
      11 -> 22        -0.11263
      11 -> 23        -0.27056

 Excited State  39:      Singlet-E     15.1969 eV   81.59 nm  f=0.0322  <S**2>=0.000
       8 -> 17         0.54719
       8 -> 18        -0.28494
      10 -> 22         0.11262
      10 -> 23        -0.27055
      11 -> 21        -0.11264

 Excited State  40:      Singlet-E     15.4930 eV   80.03 nm  f=0.0292  <S**2>=0.000
       7 -> 16        -0.15108
       7 -> 17         0.16991
       7 -> 18         0.32970
       8 -> 15         0.15109
      10 -> 19        -0.13294
      10 -> 21         0.31506
      11 -> 20        -0.13298
      11 -> 22         0.31520
      11 -> 23        -0.24275

 Excited State  41:      Singlet-E     15.4930 eV   80.03 nm  f=0.0292  <S**2>=0.000
       7 -> 15         0.15128
       8 -> 16         0.15096
       8 -> 17         0.16987
       8 -> 18         0.32963
      10 -> 20         0.13299
      10 -> 22        -0.31511
      10 -> 23        -0.24275
      11 -> 19        -0.13296
      11 -> 21         0.31520

 Excited state symmetry could not be determined.
 Excited State  42:      Singlet-?Sym   15.5163 eV   79.91 nm  f=0.0471  <S**2>=0.000
       6 -> 18        -0.20141
       7 -> 15        -0.44615
       8 -> 16         0.44626
      10 -> 22        -0.10589
      11 -> 21        -0.10561

 Excited State  43:      Singlet-E     15.5401 eV   79.78 nm  f=0.0075  <S**2>=0.000
       7 -> 17        -0.12998
       9 -> 19         0.59835
       9 -> 21         0.32080

 Excited State  44:      Singlet-E     15.5401 eV   79.78 nm  f=0.0075  <S**2>=0.000
       8 -> 17        -0.12998
       9 -> 20         0.59834
       9 -> 22         0.32079

 Excited state symmetry could not be determined.
 Excited State  45:      Singlet-?Sym   15.5492 eV   79.74 nm  f=0.0000  <S**2>=0.000
      10 -> 19        -0.12987
      10 -> 21         0.46377
      11 -> 20         0.12981
      11 -> 22        -0.46364

 Excited State  46:      Singlet-E     15.7010 eV   78.97 nm  f=0.0716  <S**2>=0.000
       7 -> 16         0.11674
       7 -> 18         0.50126
       8 -> 15        -0.11671
      10 -> 19         0.13380
      10 -> 21        -0.24157
      11 -> 20         0.13382
      11 -> 22        -0.24162
      11 -> 23        -0.17395

 Excited State  47:      Singlet-E     15.7010 eV   78.97 nm  f=0.0716  <S**2>=0.000
       7 -> 15        -0.11671
       8 -> 16        -0.11666
       8 -> 18         0.50130
      10 -> 20        -0.13380
      10 -> 22         0.24153
      10 -> 23        -0.17400
      11 -> 19         0.13379
      11 -> 21        -0.24158

 Excited State  48:      Singlet-E     15.9524 eV   77.72 nm  f=0.0033  <S**2>=0.000
       7 -> 17         0.33270
       7 -> 18         0.16523
       9 -> 19         0.12920
      11 -> 23         0.55617

 Excited State  49:      Singlet-E     15.9524 eV   77.72 nm  f=0.0033  <S**2>=0.000
       8 -> 17         0.33271
       8 -> 18         0.16525
       9 -> 20         0.12920
      10 -> 23         0.55616

 Excited state symmetry could not be determined.
 Excited State  50:      Singlet-?Sym   16.0084 eV   77.45 nm  f=0.0045  <S**2>=0.000
       6 -> 17        -0.16603
       6 -> 18         0.13151
       7 -> 15        -0.11288
       8 -> 16         0.11287
       9 -> 23         0.15815
       9 -> 24         0.14356
      10 -> 22         0.41813
      11 -> 21         0.41809

 Excited State  51:      Singlet-E     16.3647 eV   75.76 nm  f=0.0005  <S**2>=0.000
       6 -> 15         0.64711
       9 -> 19        -0.16664
       9 -> 21         0.15816

 Excited State  52:      Singlet-E     16.3647 eV   75.76 nm  f=0.0005  <S**2>=0.000
       6 -> 16         0.64711
       9 -> 20         0.16665
       9 -> 22        -0.15816

 Excited State  53:      Singlet-E     16.8377 eV   73.63 nm  f=0.0367  <S**2>=0.000
       6 -> 15        -0.19704
       9 -> 19        -0.28421
       9 -> 21         0.59323

 Excited State  54:      Singlet-E     16.8377 eV   73.63 nm  f=0.0367  <S**2>=0.000
       6 -> 16         0.19705
       9 -> 20        -0.28421
       9 -> 22         0.59323

 Excited State  55:      Singlet-A1    16.9538 eV   73.13 nm  f=0.0278  <S**2>=0.000
       6 -> 17         0.56412
       6 -> 18        -0.11473
       7 -> 19        -0.24827
       8 -> 20        -0.24827

 Excited state symmetry could not be determined.
 Excited State  56:      Singlet-?Sym   17.3451 eV   71.48 nm  f=0.0000  <S**2>=0.000
       7 -> 20        -0.48642
       8 -> 19         0.48642

 Excited State  57:      Singlet-A1    17.3861 eV   71.31 nm  f=0.0411  <S**2>=0.000
       6 -> 17        -0.10502
       6 -> 18        -0.27205
       9 -> 23         0.54826
       9 -> 24         0.15701

 Excited state symmetry could not be determined.
 Excited State  58:      Singlet-?Sym   17.8531 eV   69.45 nm  f=0.3599  <S**2>=0.000
       7 -> 20         0.46983
       8 -> 19         0.46982

 Excited state symmetry could not be determined.
 Excited State  59:      Singlet-?Sym   17.8531 eV   69.45 nm  f=0.3600  <S**2>=0.000
       7 -> 19        -0.46981
       8 -> 20         0.46983

 Excited state symmetry could not be determined.
 Excited State  60:      Singlet-?Sym   17.9474 eV   69.08 nm  f=0.0938  <S**2>=0.000
       6 -> 17         0.29128
       7 -> 19         0.38431
       8 -> 20         0.38428
       9 -> 23        -0.12062
       9 -> 24         0.22910

 Excited State  61:      Singlet-E     18.0055 eV   68.86 nm  f=0.0213  <S**2>=0.000
      11 -> 24         0.69375

 Excited State  62:      Singlet-E     18.0055 eV   68.86 nm  f=0.0213  <S**2>=0.000
      10 -> 24         0.69375

 Excited State  63:      Singlet-A1    18.2720 eV   67.85 nm  f=0.3974  <S**2>=0.000
       6 -> 17         0.10765
       6 -> 18         0.55648
       7 -> 21         0.10333
       8 -> 22         0.10333
       9 -> 23         0.24062
      10 -> 22        -0.14658
      11 -> 21        -0.14658

 Excited State  64:      Singlet-E     18.8827 eV   65.66 nm  f=0.0139  <S**2>=0.000
       6 -> 20         0.68659

 Excited State  65:      Singlet-E     18.8827 eV   65.66 nm  f=0.0139  <S**2>=0.000
       6 -> 19         0.68659

 Excited State  66:      Singlet-A1    19.2209 eV   64.50 nm  f=0.4294  <S**2>=0.000
       7 -> 19        -0.12230
       8 -> 20        -0.12230
       9 -> 23        -0.15993
       9 -> 24         0.58613
      10 -> 27         0.10078
      11 -> 26        -0.10078

 Excited State  67:      Singlet-E     19.3863 eV   63.95 nm  f=0.0085  <S**2>=0.000
      11 -> 25         0.67516

 Excited State  68:      Singlet-E     19.3864 eV   63.95 nm  f=0.0085  <S**2>=0.000
      10 -> 25         0.67515

 Excited state symmetry could not be determined.
 Excited State  69:      Singlet-?Sym   19.5200 eV   63.52 nm  f=0.0249  <S**2>=0.000
       7 -> 22         0.48619
       8 -> 21         0.48623

 Excited state symmetry could not be determined.
 Excited State  70:      Singlet-?Sym   19.5200 eV   63.52 nm  f=0.0249  <S**2>=0.000
       7 -> 21         0.48622
       8 -> 22        -0.48619

 Excited state symmetry could not be determined.
 Excited State  71:      Singlet-?Sym   19.5631 eV   63.38 nm  f=0.0000  <S**2>=0.000
       7 -> 22         0.49300
       8 -> 21        -0.49296

 Excited state symmetry could not be determined.
 Excited State  72:      Singlet-?Sym   19.6334 eV   63.15 nm  f=0.0837  <S**2>=0.000
       7 -> 21         0.47369
       8 -> 22         0.47372

 Excited State  73:      Singlet-E     20.0476 eV   61.84 nm  f=0.0155  <S**2>=0.000
       7 -> 23         0.65323
       7 -> 24        -0.18799

 Excited State  74:      Singlet-E     20.0476 eV   61.84 nm  f=0.0155  <S**2>=0.000
       8 -> 23         0.65324
       8 -> 24        -0.18798

 Excited state symmetry could not be determined.
 Excited State  75:      Singlet-?Sym   20.5362 eV   60.37 nm  f=0.0000  <S**2>=0.000
      10 -> 26         0.49199
      11 -> 27         0.49204

 Excited State  76:      Singlet-E     20.6359 eV   60.08 nm  f=0.0127  <S**2>=0.000
       6 -> 22         0.40990
       9 -> 30        -0.11415
      10 -> 27        -0.34904
      10 -> 28        -0.13318
      10 -> 30        -0.14294
      11 -> 26        -0.34904
      11 -> 29         0.14294

 Excited State  77:      Singlet-E     20.6359 eV   60.08 nm  f=0.0127  <S**2>=0.000
       6 -> 21         0.40996
       9 -> 29        -0.11417
      10 -> 26        -0.34904
      10 -> 29         0.14293
      11 -> 27         0.34899
      11 -> 28        -0.13320
      11 -> 30         0.14292

 Excited State  78:      Singlet-E     20.7016 eV   59.89 nm  f=0.0368  <S**2>=0.000
       6 -> 22         0.52126
       9 -> 30        -0.14217
      10 -> 27         0.28817
      10 -> 30         0.11380
      11 -> 26         0.28815
      11 -> 29        -0.11379

 Excited State  79:      Singlet-E     20.7016 eV   59.89 nm  f=0.0368  <S**2>=0.000
       6 -> 21         0.52122
       9 -> 29        -0.14216
      10 -> 26         0.28822
      10 -> 29        -0.11379
      11 -> 27        -0.28819
      11 -> 30        -0.11379

 Excited State  80:      Singlet-A1    20.8224 eV   59.54 nm  f=0.0000  <S**2>=0.000
       5 -> 12        -0.13293
       9 -> 24         0.13689
       9 -> 25         0.48691
       9 -> 28        -0.13868
      10 -> 27        -0.30163
      11 -> 26         0.30162

 Excited State  81:      Singlet-E     20.8538 eV   59.45 nm  f=0.0042  <S**2>=0.000
       5 -> 14         0.13130
      10 -> 28         0.66659

 Excited State  82:      Singlet-E     20.8538 eV   59.45 nm  f=0.0042  <S**2>=0.000
       5 -> 13        -0.13130
      11 -> 28         0.66659

 Excited State  83:      Singlet-A1    20.9908 eV   59.07 nm  f=0.0000  <S**2>=0.000
       6 -> 23         0.10182
       9 -> 25         0.45846
      10 -> 27         0.35577
      11 -> 26        -0.35579

 Excited state symmetry could not be determined.
 Excited State  84:      Singlet-?Sym   21.1038 eV   58.75 nm  f=0.0314  <S**2>=0.000
      10 -> 27        -0.18371
      10 -> 30         0.45501
      11 -> 26        -0.18370
      11 -> 29        -0.45501

 Excited state symmetry could not be determined.
 Excited State  85:      Singlet-?Sym   21.1038 eV   58.75 nm  f=0.0314  <S**2>=0.000
      10 -> 26         0.18369
      10 -> 29         0.45502
      11 -> 27        -0.18369
      11 -> 30         0.45502

 Excited state symmetry could not be determined.
 Excited State  86:      Singlet-?Sym   21.1837 eV   58.53 nm  f=0.0000  <S**2>=0.000
      10 -> 29         0.49197
      11 -> 30        -0.49197

 Excited State  87:      Singlet-E     21.4462 eV   57.81 nm  f=0.0649  <S**2>=0.000
       5 -> 13         0.45532
       6 -> 21         0.21141
       9 -> 26        -0.18336
       9 -> 29         0.43340

 Excited State  88:      Singlet-E     21.4462 eV   57.81 nm  f=0.0649  <S**2>=0.000
       5 -> 14         0.45532
       6 -> 22        -0.21141
       9 -> 27        -0.18336
       9 -> 30        -0.43341

 Excited State  89:      Singlet-A1    21.4797 eV   57.72 nm  f=0.0094  <S**2>=0.000
       5 -> 12         0.37428
       6 -> 23         0.54131

 Excited State  90:      Singlet-E     21.5742 eV   57.47 nm  f=0.0402  <S**2>=0.000
       5 -> 13         0.48640
       9 -> 26         0.29190
       9 -> 29        -0.39010

 Excited State  91:      Singlet-E     21.5742 eV   57.47 nm  f=0.0402  <S**2>=0.000
       5 -> 14         0.48641
       9 -> 27         0.29190
       9 -> 30         0.39009

 Excited State  92:      Singlet-A1    21.9067 eV   56.60 nm  f=0.0468  <S**2>=0.000
       5 -> 12         0.49641
       6 -> 23        -0.36740
       6 -> 25        -0.11906
       7 -> 26         0.14070
       8 -> 27        -0.14070
       9 -> 28        -0.13709

 Excited State  93:      Singlet-A1    22.0598 eV   56.20 nm  f=0.0278  <S**2>=0.000
       5 -> 12         0.16591
       9 -> 25         0.13864
       9 -> 28         0.63932

 Excited State  94:      Singlet-E     22.0662 eV   56.19 nm  f=0.0193  <S**2>=0.000
       7 -> 23         0.14724
       7 -> 24         0.40916
       7 -> 25         0.53548

 Excited State  95:      Singlet-E     22.0663 eV   56.19 nm  f=0.0193  <S**2>=0.000
       8 -> 23         0.14723
       8 -> 24         0.40916
       8 -> 25         0.53549

 Excited State  96:      Singlet-E     22.2009 eV   55.85 nm  f=0.0003  <S**2>=0.000
       9 -> 27         0.59987
       9 -> 30        -0.33252

 Excited State  97:      Singlet-E     22.2009 eV   55.85 nm  f=0.0003  <S**2>=0.000
       9 -> 26         0.59987
       9 -> 29         0.33252

 Excited State  98:      Singlet-E     22.6006 eV   54.86 nm  f=0.0304  <S**2>=0.000
       8 -> 23         0.11236
       8 -> 24         0.50402
       8 -> 25        -0.43089
       8 -> 28        -0.13960

 Excited State  99:      Singlet-E     22.6006 eV   54.86 nm  f=0.0304  <S**2>=0.000
       7 -> 23         0.11236
       7 -> 24         0.50402
       7 -> 25        -0.43089
       7 -> 28        -0.13960

 Excited state symmetry could not be determined.
 Excited State 100:      Singlet-?Sym   22.8618 eV   54.23 nm  f=0.0028  <S**2>=0.000

 The electronic state is 1-A1.
 Alpha  occ. eigenvalues --  -14.43156 -10.33845 -10.32623  -1.01228  -0.88100
 Alpha  occ. eigenvalues --   -0.60821  -0.55757  -0.55757  -0.45407  -0.41958
 Alpha  occ. eigenvalues --   -0.41958
 Alpha virt. eigenvalues --    0.09865   0.10419   0.10419   0.18481   0.18481
 Alpha virt. eigenvalues --    0.18688   0.21556   0.28376   0.28376   0.33953
 Alpha virt. eigenvalues --    0.33953   0.35681   0.43798   0.45363   0.50775

 Mulliken charges:
               1
     1  C   -0.239636
     2  C   -0.221235
     3  N   -0.022442
     4  H    0.161104
     5  H    0.161104
     6  H    0.161104
 Sum of Mulliken charges =  -0.00000

 Dipole moment (field-independent basis, Debye):
    X=             -0.0000    Y=              0.0000    Z=             -4.0320  Tot=              4.0320
 Quadrupole moment (field-independent basis, Debye-Ang):
   XX=            -17.4919   YY=            -17.4919   ZZ=            -20.7024
   XY=             -0.0000   XZ=              0.0000   YZ=              0.0000

 Normal termination of Gaussian 16 at Sat Aug 14 06:21:59 2021.
