 Gaussian 16, Revision C.01,
 Gaussian 16:  EM64L-G16RevC.01  3-Jul-2019

 ----------------------------------------------------------------------
 #P TD(Nstates=10000) wB97XD/def2TZVP SCF(maxcycles=100) Int(Grid=ultra
 fine)
 ----------------------------------------------------------------------

 ---------------------
 xGDB7_00001_tier4.com
 ---------------------
 Symbolic Z-matrix:
 Charge =  0 Multiplicity = 1

                         Standard orientation:
 ---------------------------------------------------------------------
 Center     Atomic      Atomic             Coordinates (Angstroms)
 Number     Number       Type             X           Y           Z
 ---------------------------------------------------------------------
      1          6           0        0.000000    1.267731   -0.259082
      2          6           0       -0.000000   -0.000000    0.585552
      3          6           0       -0.000000   -1.267731   -0.259082
      4          1           0        0.000000    2.164308    0.363087
      5          1           0       -0.881453    1.307675   -0.903652
      6          1           0        0.881453    1.307675   -0.903652
      7          1           0       -0.874532    0.000000    1.242055
      8          1           0        0.874532   -0.000000    1.242055
      9          1           0       -0.881453   -1.307675   -0.903652
     10          1           0       -0.000000   -2.164308    0.363087
     11          1           0        0.881453   -1.307675   -0.903652
 ---------------------------------------------------------------------

 SCF Done:  E(RwB97XD) =  -119.149006979     A.U. after   12 cycles

 Excitation energies and oscillator strengths:

 Excited State   1:      Singlet-B1     9.4702 eV  130.92 nm  f=0.0028  <S**2>=0.000
      13 -> 14         0.69123
 This state for optimization and/or second-order correction.
 Total Energy, E(TD-HF/TD-DFT) =  -118.800982748
 Copying the excited state density for this state as the 1-particle RhoCI density.

 Excited State   2:      Singlet-A1     9.8724 eV  125.59 nm  f=0.0059  <S**2>=0.000
      12 -> 14         0.69012

 Excited State   3:      Singlet-B2     9.8798 eV  125.49 nm  f=0.0446  <S**2>=0.000
      11 -> 14         0.69688

 Excited State   4:      Singlet-A2    10.6146 eV  116.81 nm  f=0.0000  <S**2>=0.000
      10 -> 14        -0.44851
      13 -> 15         0.52709

 Excited State   5:      Singlet-B1    10.8788 eV  113.97 nm  f=0.3372  <S**2>=0.000
      13 -> 16         0.67716

 Excited State   6:      Singlet-B2    10.9276 eV  113.46 nm  f=0.0010  <S**2>=0.000
       9 -> 14        -0.34095
      11 -> 18         0.10993
      12 -> 15         0.59380

 Excited State   7:      Singlet-A1    11.0916 eV  111.78 nm  f=0.0000  <S**2>=0.000
       8 -> 14         0.11854
      11 -> 15         0.43118
      12 -> 16         0.33846
      13 -> 17        -0.39430
      13 -> 19        -0.12178

 Excited State   8:      Singlet-A1    11.1361 eV  111.34 nm  f=0.1602  <S**2>=0.000
       8 -> 14         0.11574
      11 -> 15         0.47336
      13 -> 17         0.48450

 Excited State   9:      Singlet-A1    11.2089 eV  110.61 nm  f=0.4096  <S**2>=0.000
      11 -> 15        -0.16996
      12 -> 16         0.59248
      13 -> 17         0.28924
      13 -> 19         0.10523

 Excited State  10:      Singlet-A2    11.2519 eV  110.19 nm  f=0.0000  <S**2>=0.000
      10 -> 14        -0.34683
      11 -> 17         0.52237
      13 -> 15        -0.29069

 Excited State  11:      Singlet-B1    11.2834 eV  109.88 nm  f=0.1190  <S**2>=0.000
      12 -> 17         0.65183
      13 -> 18         0.21601

 Excited State  12:      Singlet-B2    11.3035 eV  109.69 nm  f=0.0010  <S**2>=0.000
      11 -> 16         0.68623
      11 -> 18        -0.11015

 Excited State  13:      Singlet-A2    11.3914 eV  108.84 nm  f=0.0000  <S**2>=0.000
      10 -> 14         0.38723
      11 -> 17         0.46335
      13 -> 15         0.34095

 Excited State  14:      Singlet-B1    11.4571 eV  108.22 nm  f=0.0047  <S**2>=0.000
      10 -> 15         0.16873
      12 -> 17        -0.19899
      13 -> 18         0.62771
      13 -> 21        -0.10788

 Excited State  15:      Singlet-B2    11.7255 eV  105.74 nm  f=0.3481  <S**2>=0.000
       9 -> 14         0.13520
      11 -> 16         0.12673
      11 -> 18         0.65594

 Excited State  16:      Singlet-A1    11.7338 eV  105.66 nm  f=0.0474  <S**2>=0.000
       9 -> 15         0.16712
      12 -> 18         0.66152
      12 -> 21        -0.10981

 Excited State  17:      Singlet-B2    11.8740 eV  104.42 nm  f=0.1445  <S**2>=0.000
       9 -> 14         0.56461
      11 -> 21         0.14570
      12 -> 15         0.33980

 Excited State  18:      Singlet-B1    11.9947 eV  103.37 nm  f=0.0224  <S**2>=0.000
      12 -> 19         0.68251

 Excited State  19:      Singlet-A1    12.0337 eV  103.03 nm  f=0.0117  <S**2>=0.000
      11 -> 15         0.12694
      13 -> 19         0.67466

 Excited State  20:      Singlet-A2    12.0618 eV  102.79 nm  f=0.0000  <S**2>=0.000
      10 -> 16         0.20795
      10 -> 18        -0.14452
      11 -> 19         0.58743
      13 -> 20         0.27149

 Excited State  21:      Singlet-A2    12.1666 eV  101.91 nm  f=0.0000  <S**2>=0.000
      10 -> 16         0.39251
      10 -> 18        -0.13408
      11 -> 19        -0.36786
      13 -> 20         0.40703

 Excited State  22:      Singlet-B1    12.2859 eV  100.92 nm  f=0.0017  <S**2>=0.000
      10 -> 15         0.39836
      13 -> 21         0.54731

 Excited State  23:      Singlet-B2    12.4288 eV   99.76 nm  f=0.0029  <S**2>=0.000
       9 -> 16        -0.12771
       9 -> 18         0.13080
      10 -> 17         0.44299
      10 -> 19        -0.14053
      12 -> 20        -0.25393
      13 -> 22        -0.40587

 Excited State  24:      Singlet-A2    12.5443 eV   98.84 nm  f=0.0000  <S**2>=0.000
       9 -> 17        -0.36417
       9 -> 19         0.16471
      10 -> 16        -0.11532
      10 -> 18        -0.21434
      12 -> 22         0.49764

 Excited State  25:      Singlet-B2    12.5937 eV   98.45 nm  f=0.1042  <S**2>=0.000
       9 -> 16         0.24619
       9 -> 18        -0.12613
      11 -> 21         0.32633
      12 -> 20         0.46360
      13 -> 22        -0.22574

 Excited State  26:      Singlet-B1    12.6020 eV   98.38 nm  f=0.2362  <S**2>=0.000
       7 -> 14         0.20462
      10 -> 15         0.47795
      11 -> 22        -0.21423
      13 -> 18        -0.16820
      13 -> 21        -0.34923

 Excited State  27:      Singlet-B2    12.6241 eV   98.21 nm  f=0.5708  <S**2>=0.000
       9 -> 14        -0.10852
       9 -> 16        -0.13941
       9 -> 18         0.10030
      10 -> 17        -0.18122
      10 -> 19         0.11923
      11 -> 21         0.57498
      12 -> 20        -0.23694

 Excited State  28:      Singlet-A1    12.6703 eV   97.85 nm  f=0.0202  <S**2>=0.000
       9 -> 15         0.21042
      11 -> 20        -0.25817
      12 -> 21         0.58541

 Excited State  29:      Singlet-A1    12.7334 eV   97.37 nm  f=0.0454  <S**2>=0.000
       8 -> 14         0.51276
       8 -> 18         0.10080
       9 -> 15         0.30521
      11 -> 15        -0.10969
      11 -> 20         0.29515
      12 -> 18        -0.10362

 Excited State  30:      Singlet-B1    12.7982 eV   96.88 nm  f=0.0085  <S**2>=0.000
       8 -> 17         0.12322
       8 -> 19        -0.12186
      10 -> 15         0.10096
      11 -> 22         0.63372
      13 -> 21        -0.19951

 Excited State  31:      Singlet-A1    12.8163 eV   96.74 nm  f=0.1191  <S**2>=0.000
       8 -> 14        -0.24138
      11 -> 20         0.53962
      12 -> 21         0.30292

 Excited State  32:      Singlet-A2    12.8751 eV   96.30 nm  f=0.0000  <S**2>=0.000
       9 -> 17        -0.19181
      10 -> 16         0.49526
      10 -> 18         0.20517
      12 -> 22         0.15494
      13 -> 20        -0.35968
      13 -> 26         0.10364

 Excited State  33:      Singlet-B2    12.9797 eV   95.52 nm  f=0.0016  <S**2>=0.000
       9 -> 16        -0.10688
      10 -> 17         0.47630
      10 -> 19         0.15465
      11 -> 21         0.10687
      12 -> 20         0.11777
      13 -> 22         0.43451
      13 -> 25         0.10288

 Excited State  34:      Singlet-A2    13.1682 eV   94.15 nm  f=0.0000  <S**2>=0.000
       7 -> 15        -0.13163
       9 -> 17        -0.35947
      10 -> 16        -0.11608
      10 -> 18         0.43686
      12 -> 22        -0.10315
      13 -> 20         0.29458
      13 -> 23        -0.11976

 Excited State  35:      Singlet-B2    13.2081 eV   93.87 nm  f=0.0018  <S**2>=0.000
       9 -> 16         0.54232
       9 -> 18         0.29423
      12 -> 20        -0.19445
      12 -> 23        -0.14514
      13 -> 22         0.15018

 Excited State  36:      Singlet-A1    13.2253 eV   93.75 nm  f=0.0159  <S**2>=0.000
       8 -> 14        -0.32513
       8 -> 18        -0.13421
       9 -> 15         0.52959
      11 -> 23        -0.13189
      12 -> 18        -0.12846
      12 -> 21        -0.16322

 Excited State  37:      Singlet-A2    13.3243 eV   93.05 nm  f=0.0000  <S**2>=0.000
       9 -> 17         0.41147
       9 -> 19         0.14520
      10 -> 18         0.30670
      12 -> 22         0.38809
      12 -> 25         0.11209
      13 -> 20         0.11513

 Excited State  38:      Singlet-B1    13.3784 eV   92.67 nm  f=0.0359  <S**2>=0.000
       7 -> 14         0.57554
       7 -> 16         0.16122
      10 -> 15        -0.13485
      10 -> 20        -0.25931
      13 -> 24         0.17083

 Excited State  39:      Singlet-B2    13.5613 eV   91.43 nm  f=0.0066  <S**2>=0.000
       8 -> 15        -0.12891
       9 -> 16        -0.25947
       9 -> 18         0.49556
      12 -> 20         0.29030
      12 -> 23        -0.19425

 Excited State  40:      Singlet-A2    13.6411 eV   90.89 nm  f=0.0000  <S**2>=0.000
      10 -> 18        -0.12216
      10 -> 21         0.61822
      13 -> 23        -0.25963

 Excited State  41:      Singlet-B2    13.6411 eV   90.89 nm  f=0.1715  <S**2>=0.000
       9 -> 18         0.10023
      10 -> 19         0.62018
      13 -> 22        -0.23383

 Excited State  42:      Singlet-B1    13.7150 eV   90.40 nm  f=0.0593  <S**2>=0.000
       7 -> 14         0.29828
       7 -> 16        -0.22731
       7 -> 18         0.17140
      10 -> 15        -0.16671
      10 -> 20         0.42093
      13 -> 24        -0.31863

 Excited State  43:      Singlet-A2    13.9629 eV   88.80 nm  f=0.0000  <S**2>=0.000
       9 -> 19         0.61031
      12 -> 22        -0.23144
      13 -> 23         0.18188
      13 -> 26         0.10776

 Excited State  44:      Singlet-A1    13.9827 eV   88.67 nm  f=0.0446  <S**2>=0.000
       8 -> 14        -0.10432
       8 -> 16         0.46488
       9 -> 15         0.11742
       9 -> 20        -0.22245
      11 -> 23         0.24627
      11 -> 26        -0.22818
      12 -> 24         0.24904

 Excited State  45:      Singlet-B1    14.0775 eV   88.07 nm  f=0.0154  <S**2>=0.000
       8 -> 17         0.56703
       9 -> 22         0.20791
      11 -> 25        -0.32137

 Excited State  46:      Singlet-A2    14.1060 eV   87.89 nm  f=0.0000  <S**2>=0.000
       7 -> 15        -0.15599
       9 -> 19        -0.20761
      10 -> 21         0.19359
      13 -> 23         0.43745
      13 -> 26         0.42043

 Excited State  47:      Singlet-B2    14.1938 eV   87.35 nm  f=0.1751  <S**2>=0.000
       8 -> 15         0.44584
       9 -> 21         0.25446
      11 -> 27         0.11615
      12 -> 23        -0.42795

 Excited State  48:      Singlet-A1    14.2274 eV   87.14 nm  f=0.0588  <S**2>=0.000
       7 -> 17         0.26482
       8 -> 18         0.16670
       9 -> 20         0.18427
      10 -> 22         0.48278
      11 -> 23         0.23709
      11 -> 26        -0.10419
      12 -> 24        -0.12591

 Excited State  49:      Singlet-B2    14.3334 eV   86.50 nm  f=0.0053  <S**2>=0.000
       8 -> 15        -0.25069
       9 -> 18        -0.12696
       9 -> 21         0.52329
      12 -> 26         0.33734

 Excited State  50:      Singlet-A1    14.3699 eV   86.28 nm  f=0.0404  <S**2>=0.000
       8 -> 14        -0.11319
       8 -> 16        -0.29418
       8 -> 18         0.20513
      10 -> 22        -0.19429
      11 -> 20        -0.11421
      11 -> 23         0.38170
      11 -> 26         0.22564
      12 -> 24         0.28531

 Excited State  51:      Singlet-B1    14.3939 eV   86.14 nm  f=0.0101  <S**2>=0.000
       7 -> 18         0.20573
       8 -> 19        -0.12270
       9 -> 22         0.18027
      10 -> 20         0.32943
      10 -> 23         0.12986
      11 -> 25         0.16268
      13 -> 24         0.47152

 Excited State  52:      Singlet-A2    14.4639 eV   85.72 nm  f=0.0000  <S**2>=0.000
       7 -> 15        -0.18512
      10 -> 18        -0.19328
      10 -> 21        -0.23412
      12 -> 25         0.10105
      13 -> 23        -0.39904
      13 -> 26         0.40973

 Excited State  53:      Singlet-B2    14.5004 eV   85.50 nm  f=0.0747  <S**2>=0.000
       8 -> 15         0.34435
       8 -> 20         0.13172
       9 -> 18         0.15654
       9 -> 21         0.10163
      11 -> 24         0.28598
      12 -> 23         0.33860
      12 -> 26         0.23122
      13 -> 25        -0.23255

 Excited State  54:      Singlet-B2    14.5451 eV   85.24 nm  f=0.0002  <S**2>=0.000
       8 -> 20         0.14615
      11 -> 24         0.45603
      12 -> 26        -0.12803
      13 -> 25         0.46774

 Excited State  55:      Singlet-A1    14.5484 eV   85.22 nm  f=0.0903  <S**2>=0.000
       7 -> 17        -0.21878
       7 -> 19        -0.12871
       8 -> 16        -0.29054
       8 -> 18        -0.18562
       8 -> 21         0.14997
       9 -> 20        -0.32303
      10 -> 22         0.34011
      10 -> 25         0.10895
      12 -> 24         0.20688

 Excited State  56:      Singlet-B1    14.7205 eV   84.23 nm  f=0.1516  <S**2>=0.000
       7 -> 16        -0.19542
       8 -> 19        -0.21641
       9 -> 22         0.47854
      10 -> 20        -0.24888
      10 -> 23         0.10178
      11 -> 25         0.13890
      13 -> 24        -0.14627
      13 -> 27        -0.19220

 Excited State  57:      Singlet-B2    14.7686 eV   83.95 nm  f=0.0017  <S**2>=0.000
       8 -> 15        -0.17793
       9 -> 18        -0.15305
       9 -> 21        -0.13360
      11 -> 24         0.39135
      12 -> 23        -0.31073
      13 -> 25        -0.36367

 Excited State  58:      Singlet-A2    14.8004 eV   83.77 nm  f=0.0000  <S**2>=0.000
       7 -> 15        -0.31868
      12 -> 25         0.54097
      13 -> 26        -0.26449

 Excited State  59:      Singlet-A1    14.8092 eV   83.72 nm  f=0.0017  <S**2>=0.000
       7 -> 17        -0.21133
       8 -> 16         0.20931
       8 -> 18        -0.14997
      10 -> 22         0.12897
      10 -> 25         0.12319
      11 -> 23         0.21661
      11 -> 26         0.45196
      12 -> 24        -0.24599
      13 -> 28        -0.11640

 Excited State  60:      Singlet-A1    14.8660 eV   83.40 nm  f=0.0409  <S**2>=0.000
       7 -> 17        -0.28516
       8 -> 16         0.13263
       8 -> 18         0.19993
       9 -> 20         0.35621
      10 -> 22         0.17705
      11 -> 23        -0.24378
      11 -> 26         0.11374
      12 -> 24         0.29162

 Excited State  61:      Singlet-B1    14.8668 eV   83.40 nm  f=0.0143  <S**2>=0.000
       7 -> 16         0.18186
       8 -> 17         0.32900
       9 -> 22        -0.12445
      11 -> 22        -0.12038
      11 -> 25         0.52010
      13 -> 24        -0.18509

 Excited State  62:      Singlet-B1    14.9395 eV   82.99 nm  f=0.0036  <S**2>=0.000
       7 -> 16         0.56828
       8 -> 17        -0.13077
       9 -> 22         0.14864
      10 -> 20         0.11392
      11 -> 25        -0.15409
      13 -> 24        -0.25217

 Excited State  63:      Singlet-A2    14.9777 eV   82.78 nm  f=0.0000  <S**2>=0.000
       7 -> 15         0.53542
      12 -> 25         0.38674
      13 -> 26         0.18045

 Excited State  64:      Singlet-B2    15.1133 eV   82.04 nm  f=0.1028  <S**2>=0.000
       8 -> 15         0.12612
       8 -> 20         0.10552
       9 -> 18        -0.14037
       9 -> 21        -0.29343
      11 -> 24        -0.10751
      11 -> 27        -0.23517
      12 -> 23        -0.14904
      12 -> 26         0.47082
      13 -> 25         0.17368

 Excited State  65:      Singlet-A1    15.2095 eV   81.52 nm  f=0.0568  <S**2>=0.000
       7 -> 17        -0.14325
       8 -> 18         0.47133
       8 -> 21        -0.16630
       9 -> 20        -0.32181
      11 -> 23        -0.15105
      12 -> 24        -0.19232
      12 -> 27        -0.11676

 Excited State  66:      Singlet-B1    15.2248 eV   81.44 nm  f=0.0075  <S**2>=0.000
       8 -> 17        -0.10069
       8 -> 19         0.52875
       9 -> 22         0.31733
      11 -> 25         0.15323
      13 -> 27         0.17071

 Excited State  67:      Singlet-A1    15.4034 eV   80.49 nm  f=0.0113  <S**2>=0.000
       7 -> 17         0.37866
       7 -> 19        -0.20948
       8 -> 18         0.11439
       8 -> 21         0.23629
       9 -> 20        -0.12088
       9 -> 23         0.10213
      10 -> 25         0.17954
      11 -> 23        -0.20297
      11 -> 26         0.26329
      13 -> 28        -0.20182

 Excited State  68:      Singlet-B1    15.4406 eV   80.30 nm  f=0.2063  <S**2>=0.000
       7 -> 18         0.50245
       8 -> 19         0.22848
       9 -> 22        -0.14540
       9 -> 25         0.11670
      10 -> 20        -0.15469
      10 -> 23         0.19323
      10 -> 26        -0.10095
      12 -> 28        -0.23886

 Excited State  69:      Singlet-B1    15.5168 eV   79.90 nm  f=0.0248  <S**2>=0.000
       7 -> 21         0.29555
       8 -> 19        -0.19343
      10 -> 23         0.31087
      12 -> 28         0.18796
      13 -> 27         0.44098

 Excited State  70:      Singlet-A1    15.6332 eV   79.31 nm  f=0.1415  <S**2>=0.000
       7 -> 17        -0.11305
       7 -> 19         0.28358
       8 -> 21         0.32779
       9 -> 26        -0.11357
      12 -> 24        -0.13146
      12 -> 27         0.46767
      13 -> 28        -0.11546

 Excited State  71:      Singlet-A2    15.6553 eV   79.20 nm  f=0.0000  <S**2>=0.000
       8 -> 22         0.34459
       8 -> 25         0.16780
      11 -> 28         0.56119
      11 -> 29         0.13957

 Excited State  72:      Singlet-B1    15.6695 eV   79.12 nm  f=0.0318  <S**2>=0.000
       7 -> 18        -0.29913
       7 -> 21         0.17410
       8 -> 19         0.13020
       9 -> 25         0.16417
      10 -> 20         0.11848
      10 -> 23         0.41908
      10 -> 26         0.20086
      12 -> 28        -0.22182
      13 -> 27        -0.20525

 Excited State  73:      Singlet-A1    15.7318 eV   78.81 nm  f=0.0088  <S**2>=0.000
       7 -> 19        -0.35373
       8 -> 21        -0.26406
       9 -> 23        -0.18290
      12 -> 27         0.45092
      13 -> 28         0.13123

 Excited State  74:      Singlet-A1    15.8827 eV   78.06 nm  f=0.0138  <S**2>=0.000
       7 -> 17        -0.16425
       7 -> 19        -0.34966
       8 -> 21         0.23873
       9 -> 23         0.37477
      10 -> 22        -0.13847
      12 -> 24        -0.22316
      13 -> 28         0.18989

 Excited State  75:      Singlet-A2    15.8953 eV   78.00 nm  f=0.0000  <S**2>=0.000
       7 -> 20         0.36407
      10 -> 24         0.56686

 Excited State  76:      Singlet-B2    15.9610 eV   77.68 nm  f=0.0836  <S**2>=0.000
       8 -> 20         0.57286
       9 -> 24         0.18403
      11 -> 24        -0.15271
      11 -> 27         0.25564

 Excited State  77:      Singlet-A2    15.9786 eV   77.59 nm  f=0.0000  <S**2>=0.000
       8 -> 22         0.57532
      11 -> 28        -0.36241

 Excited State  78:      Singlet-A1    16.0877 eV   77.07 nm  f=0.1790  <S**2>=0.000
       7 -> 19         0.22332
       8 -> 16         0.10986
       8 -> 21         0.10164
       9 -> 26         0.32588
      11 -> 26         0.22481
      13 -> 28         0.41585
      13 -> 29         0.18698

 Excited State  79:      Singlet-B1    16.1574 eV   76.74 nm  f=0.0000  <S**2>=0.000
       7 -> 21         0.44207
      10 -> 26        -0.42780
      13 -> 27        -0.31035

 Excited State  80:      Singlet-B1    16.2655 eV   76.23 nm  f=0.2637  <S**2>=0.000
       7 -> 18         0.22971
       7 -> 21         0.15719
       9 -> 25        -0.17623
      10 -> 26         0.40805
      12 -> 28         0.35897
      13 -> 27        -0.23907

 Excited State  81:      Singlet-B2    16.2954 eV   76.09 nm  f=0.1783  <S**2>=0.000
       7 -> 22        -0.42303
       8 -> 20        -0.20110
       9 -> 27        -0.10068
      10 -> 19        -0.11082
      11 -> 27         0.44230
      12 -> 26         0.14742
      13 -> 25         0.10822

 Excited State  82:      Singlet-A1    16.3733 eV   75.72 nm  f=0.0533  <S**2>=0.000
       7 -> 19         0.15231
       8 -> 21        -0.23001
       9 -> 23         0.35154
       9 -> 26        -0.10210
      10 -> 25         0.40701
      12 -> 27         0.11390
      13 -> 29         0.22993

 Excited State  83:      Singlet-B2    16.5023 eV   75.13 nm  f=0.0274  <S**2>=0.000
       7 -> 22         0.16807
       8 -> 20        -0.19762
       8 -> 23        -0.19100
       9 -> 24         0.59626

 Excited State  84:      Singlet-B1    16.5212 eV   75.05 nm  f=0.2873  <S**2>=0.000
       7 -> 21         0.27481
       9 -> 25         0.34652
      10 -> 23        -0.32404
      10 -> 26         0.22693
      12 -> 28        -0.12917
      12 -> 29         0.28218

 Excited State  85:      Singlet-A1    16.5564 eV   74.89 nm  f=0.1012  <S**2>=0.000
       8 -> 21         0.16304
       9 -> 23        -0.29788
       9 -> 26        -0.13856
      10 -> 25         0.42498
      12 -> 27        -0.11460
      13 -> 28         0.33027
      13 -> 29        -0.11728

 Excited State  86:      Singlet-A2    16.5832 eV   74.76 nm  f=0.0000  <S**2>=0.000
       7 -> 20         0.57622
      10 -> 24        -0.35240
      10 -> 27        -0.15035

 Excited State  87:      Singlet-B1    16.6985 eV   74.25 nm  f=0.1361  <S**2>=0.000
       7 -> 21        -0.22648
       9 -> 25         0.36187

 The electronic state is 1-A1.
 Alpha  occ. eigenvalues --  -10.27504 -10.26634 -10.26633  -0.88081  -0.77683
 Alpha  occ. eigenvalues --   -0.67718  -0.54562  -0.52403  -0.48270  -0.46361
 Alpha  occ. eigenvalues --   -0.41873  -0.41752  -0.40725
 Alpha virt. eigenvalues --    0.11396   0.15710   0.16237   0.16991   0.18416
 Alpha virt. eigenvalues --    0.20103   0.21801   0.22692   0.22939   0.28500
 Alpha virt. eigenvalues --    0.29352   0.29973   0.30595   0.34689   0.35050

 Mulliken charges:
               1
     1  C   -0.335480
     2  C   -0.147900
     3  C   -0.335480
     4  H    0.113696
     5  H    0.104001
     6  H    0.104001
     7  H    0.087731
     8  H    0.087731
     9  H    0.104001
    10  H    0.113696
    11  H    0.104001
 Sum of Mulliken charges =   0.00000

 Dipole moment (field-independent basis, Debye):
    X=              0.0000    Y=             -0.0000    Z=              0.0933  Tot=              0.0933
 Quadrupole moment (field-independent basis, Debye-Ang):
   XX=            -21.3182   YY=            -22.2095   ZZ=            -21.8447
   XY=             -0.0000   XZ=              0.0000   YZ=             -0.0000

 1\1\GINC-HEL18\SP\RwB97XD TD-FC\def2TZVP\C3H8\PRAKRITI\14-Aug-2021\0\\
 #P TD(Nstates=10000) wB97XD/def2TZVP SCF(maxcycles=100) Int(Grid=ultra
 fine)\\xGDB7_00001_tier4.com\\0,1\C,0,0.,1.267731,-0.259082\C,0,0.,0.,
 0.585552\C,0,0.,-1.267731,-0.259082\H,0,0.,2.164308,0.363087\H,0,-0.88
 1453,1.307675,-0.903652\H,0,0.881453,1.307675,-0.903652\H,0,-0.874532,
 0.,1.242055\H,0,0.874532,0.,1.242055\H,0,-0.881453,-1.307675,-0.903652
 \H,0,0.,-2.164308,0.363087\H,0,0.881453,-1.307675,-0.903652\\Version=E
 M64L-G16RevC.01\State=1-A1\HF=-119.149007\RMSD=3.145e-09\PG=C02V [C2(C

 Normal termination of Gaussian 16 at Sat Aug 14 06:25:17 2021.
