 Gaussian 16, Revision C.01,
 Gaussian 16:  EM64L-G16RevC.01  3-Jul-2019

 ----------------------------------------------------------------------
 #P TD(Nstates=10000) wB97XD/def2TZVP SCF(maxcycles=100) Int(Grid=ultra
 fine)
 ----------------------------------------------------------------------

 ---------------------
 xGDB7_00001_tier4.com
 ---------------------
 Symbolic Z-matrix:
 Charge =  0 Multiplicity = 1

                         Standard orientation:
 ---------------------------------------------------------------------
 Center     Atomic      Atomic             Coordinates (Angstroms)
 Number     Number       Type             X           Y           Z
 ---------------------------------------------------------------------
      1          6           0       -1.240791   -0.237624   -0.027525
      2          6           0        0.048946    0.559205    0.053709
      3          7           0        1.202342   -0.317606   -0.116703
      4          1           0       -2.109817    0.415828    0.064703
      5          1           0       -1.292929   -0.976209    0.776809
      6          1           0       -1.300329   -0.769884   -0.977746
      7          1           0        0.066306    1.122818    0.997967
      8          1           0        0.069957    1.296574   -0.752592
      9          1           0        1.236408   -1.003082    0.627159
     10          1           0        2.065080    0.207710   -0.076483
 ---------------------------------------------------------------------

 SCF Done:  E(RwB97XD) =  -135.184962811     A.U. after   13 cycles

 Excitation energies and oscillator strengths:

 Excited State   1:      Singlet-A      6.7009 eV  185.03 nm  f=0.0101  <S**2>=0.000
      13 -> 14         0.67131
      13 -> 15        -0.20252
 This state for optimization and/or second-order correction.
 Total Energy, E(TD-HF/TD-DFT) =  -134.938709909
 Copying the excited state density for this state as the 1-particle RhoCI density.

 Excited State   2:      Singlet-A      8.0937 eV  153.19 nm  f=0.0095  <S**2>=0.000
      13 -> 15        -0.37215
      13 -> 16         0.52235
      13 -> 17        -0.18078
      13 -> 18        -0.13636
      13 -> 19         0.12483
      13 -> 20        -0.10028

 Excited State   3:      Singlet-A      8.2480 eV  150.32 nm  f=0.0287  <S**2>=0.000
      13 -> 14         0.18250
      13 -> 15         0.50198
      13 -> 16         0.42357
      13 -> 18         0.11649

 Excited State   4:      Singlet-A      9.0959 eV  136.31 nm  f=0.1345  <S**2>=0.000
      13 -> 15        -0.14323
      13 -> 17         0.65751
      13 -> 18        -0.15711

 Excited State   5:      Singlet-A      9.4816 eV  130.76 nm  f=0.0333  <S**2>=0.000
      13 -> 15        -0.18719
      13 -> 16         0.12192
      13 -> 18         0.57376
      13 -> 19        -0.23261
      13 -> 20         0.12146
      13 -> 21        -0.14675

 Excited State   6:      Singlet-A      9.8821 eV  125.46 nm  f=0.0008  <S**2>=0.000
      12 -> 14         0.15554
      13 -> 16        -0.10052
      13 -> 18         0.19153
      13 -> 19         0.58981
      13 -> 21        -0.25002

 Excited State   7:      Singlet-A      9.9422 eV  124.70 nm  f=0.0048  <S**2>=0.000
      12 -> 14         0.66431
      13 -> 19        -0.14483

 Excited State   8:      Singlet-A     10.3165 eV  120.18 nm  f=0.0181  <S**2>=0.000
      13 -> 20         0.67217

 Excited State   9:      Singlet-A     10.4345 eV  118.82 nm  f=0.0062  <S**2>=0.000
      10 -> 14         0.10185
      11 -> 14         0.64291
      12 -> 15        -0.11223
      13 -> 21         0.18413

 Excited State  10:      Singlet-A     10.5587 eV  117.42 nm  f=0.0103  <S**2>=0.000
      11 -> 14        -0.19130
      13 -> 18         0.21303
      13 -> 19         0.16743
      13 -> 21         0.59408
      13 -> 26        -0.10391

 Excited State  11:      Singlet-A     10.6761 eV  116.13 nm  f=0.1104  <S**2>=0.000
      10 -> 14         0.64166
      10 -> 15         0.24930

 Excited State  12:      Singlet-A     10.9388 eV  113.34 nm  f=0.0337  <S**2>=0.000
       9 -> 14         0.18626
      11 -> 14         0.11092
      12 -> 15         0.63216
      13 -> 22         0.14033

 Excited State  13:      Singlet-A     11.1694 eV  111.00 nm  f=0.1808  <S**2>=0.000
      12 -> 16         0.49807
      13 -> 22         0.43746
      13 -> 23         0.13739

 Excited State  14:      Singlet-A     11.2859 eV  109.86 nm  f=0.2035  <S**2>=0.000
      11 -> 15         0.19395
      11 -> 16         0.11074
      12 -> 15         0.12843
      12 -> 16         0.45549
      13 -> 22        -0.41239
      13 -> 23        -0.15840

 Excited State  15:      Singlet-A     11.5134 eV  107.69 nm  f=0.0553  <S**2>=0.000
      10 -> 15         0.16949
      11 -> 15         0.61357
      11 -> 16        -0.11428
      12 -> 17         0.11939
      13 -> 22         0.13421

 Excited State  16:      Singlet-A     11.6231 eV  106.67 nm  f=0.1205  <S**2>=0.000
       8 -> 14         0.13723
       9 -> 14        -0.13509
      10 -> 14        -0.21003
      10 -> 15         0.55844
      10 -> 17        -0.12463
      11 -> 15        -0.12955
      11 -> 16         0.12168

 Excited State  17:      Singlet-A     11.7805 eV  105.25 nm  f=0.0012  <S**2>=0.000
      11 -> 16         0.61027
      12 -> 17         0.24685

 Excited State  18:      Singlet-A     11.8255 eV  104.84 nm  f=0.0051  <S**2>=0.000
      10 -> 16        -0.13464
      11 -> 15        -0.14246
      11 -> 16        -0.23624
      11 -> 17         0.11546
      12 -> 17         0.54846
      12 -> 18        -0.24369

 Excited State  19:      Singlet-A     11.9837 eV  103.46 nm  f=0.0686  <S**2>=0.000
       9 -> 14        -0.10579
      10 -> 16        -0.39694
      11 -> 17        -0.10118
      12 -> 17         0.11670
      12 -> 18         0.49833

 Excited State  20:      Singlet-A     12.0080 eV  103.25 nm  f=0.0026  <S**2>=0.000
      10 -> 16         0.52646
      12 -> 17         0.25360
      12 -> 18         0.33008

 Excited State  21:      Singlet-A     12.1260 eV  102.25 nm  f=0.0431  <S**2>=0.000
      11 -> 17        -0.35513
      12 -> 18        -0.10954
      12 -> 19        -0.12781
      13 -> 22        -0.17562
      13 -> 23         0.52061

 Excited State  22:      Singlet-A     12.2506 eV  101.21 nm  f=0.0031  <S**2>=0.000
       9 -> 14         0.39093
      10 -> 15         0.13644
      10 -> 17        -0.15922
      11 -> 17        -0.33463
      11 -> 18         0.19117
      12 -> 19        -0.12384
      13 -> 22         0.10229
      13 -> 23        -0.26617

 Excited State  23:      Singlet-A     12.2823 eV  100.95 nm  f=0.1907  <S**2>=0.000
       9 -> 14         0.38580
      10 -> 17        -0.24268
      11 -> 17         0.36756
      11 -> 18        -0.11587
      12 -> 15        -0.12708
      12 -> 18         0.15006
      13 -> 23         0.20909

 Excited State  24:      Singlet-A     12.4453 eV   99.62 nm  f=0.1849  <S**2>=0.000
       9 -> 14         0.14520
      10 -> 15         0.10924
      10 -> 17         0.44692
      11 -> 17         0.16345
      11 -> 18         0.38919
      11 -> 19         0.12275

 Excited State  25:      Singlet-A     12.5203 eV   99.03 nm  f=0.0421  <S**2>=0.000
       9 -> 15         0.13122
      10 -> 17        -0.14104
      10 -> 18         0.19468
      11 -> 17        -0.13697
      12 -> 19         0.57507
      13 -> 26        -0.11214

 Excited State  26:      Singlet-A     12.5230 eV   99.01 nm  f=0.0082  <S**2>=0.000
       9 -> 14        -0.22650
      10 -> 17        -0.36149
      10 -> 18         0.11456
      10 -> 20         0.12182
      11 -> 17         0.13166
      11 -> 18         0.43661
      12 -> 19        -0.13632
      12 -> 20        -0.10354

 Excited State  27:      Singlet-A     12.6164 eV   98.27 nm  f=0.0752  <S**2>=0.000
       9 -> 16        -0.12419
      10 -> 18         0.50522
      11 -> 18        -0.17927
      11 -> 19        -0.15252
      12 -> 20        -0.33308

 Excited State  28:      Singlet-A     12.7864 eV   96.97 nm  f=0.1495  <S**2>=0.000
       8 -> 14         0.10376
       9 -> 16         0.11824
      10 -> 18         0.31626
      11 -> 19         0.20755
      11 -> 20         0.22766
      12 -> 20         0.40478
      13 -> 24         0.16904
      13 -> 26         0.14587

 Excited State  29:      Singlet-A     12.8529 eV   96.46 nm  f=0.2026  <S**2>=0.000
      10 -> 18        -0.17751
      11 -> 19         0.18019
      11 -> 20         0.10944
      12 -> 19         0.15279
      12 -> 20        -0.24048
      13 -> 24         0.43244
      13 -> 25         0.16863
      13 -> 26         0.26040

 Excited State  30:      Singlet-A     13.0268 eV   95.18 nm  f=0.0277  <S**2>=0.000
       9 -> 15        -0.15741
      10 -> 19         0.14206
      11 -> 18        -0.15498
      11 -> 19         0.48258
      11 -> 20         0.16385
      12 -> 20        -0.17569
      12 -> 21        -0.18573
      13 -> 25        -0.13993
      13 -> 26        -0.18063

 Excited State  31:      Singlet-A     13.1222 eV   94.48 nm  f=0.0067  <S**2>=0.000
       8 -> 14        -0.15638
       9 -> 15        -0.11701
       9 -> 16        -0.14902
      10 -> 19         0.44786
      10 -> 20         0.40125
      12 -> 20         0.11762

 Excited State  32:      Singlet-A     13.1680 eV   94.16 nm  f=0.0464  <S**2>=0.000
       9 -> 16        -0.22202
      10 -> 19        -0.24415
      10 -> 20         0.11900
      11 -> 19         0.16297
      12 -> 21         0.48915
      13 -> 24        -0.21342

 Excited State  33:      Singlet-A     13.1978 eV   93.94 nm  f=0.0198  <S**2>=0.000
      11 -> 20        -0.23332
      11 -> 21         0.11414
      12 -> 21         0.20924
      13 -> 24         0.39390
      13 -> 25        -0.33276
      13 -> 26        -0.25440

 Excited State  34:      Singlet-A     13.3064 eV   93.18 nm  f=0.1263  <S**2>=0.000
       7 -> 14        -0.19472
       8 -> 14         0.17865
       9 -> 15         0.43373
      10 -> 20         0.22945
      11 -> 20         0.28677
      13 -> 25        -0.18389

 Excited State  35:      Singlet-A     13.3296 eV   93.01 nm  f=0.0752  <S**2>=0.000
       7 -> 14         0.10116
       9 -> 15        -0.17923
       9 -> 16        -0.11872
      10 -> 19        -0.20458
      11 -> 19        -0.23132
      11 -> 20         0.41604
      13 -> 24         0.15579
      13 -> 26        -0.25354
      13 -> 27        -0.13977

 Excited State  36:      Singlet-A     13.4276 eV   92.34 nm  f=0.0750  <S**2>=0.000
       8 -> 14         0.32444
       8 -> 16         0.11291
      10 -> 19        -0.19102
      10 -> 20         0.34617
      10 -> 21         0.11089
      11 -> 20        -0.20106
      12 -> 21        -0.26312
      13 -> 25         0.14215

 Excited State  37:      Singlet-A     13.4507 eV   92.18 nm  f=0.0245  <S**2>=0.000
       8 -> 14         0.47386
       9 -> 15        -0.22500
      10 -> 19         0.20490
      10 -> 20        -0.15629
      11 -> 20         0.11406
      12 -> 21         0.12469
      13 -> 26         0.10727

 Excited State  38:      Singlet-A     13.5873 eV   91.25 nm  f=0.0869  <S**2>=0.000
       9 -> 16         0.22468
      10 -> 19         0.12144
      11 -> 21         0.39866
      13 -> 25         0.38685
      13 -> 26        -0.23031

 Excited State  39:      Singlet-A     13.6473 eV   90.85 nm  f=0.0673  <S**2>=0.000
       8 -> 14        -0.14442
       9 -> 15        -0.21098
       9 -> 16         0.28141
      10 -> 19        -0.12262
      10 -> 20         0.11178
      10 -> 21         0.12596
      11 -> 21         0.26242
      12 -> 22         0.20092
      13 -> 25        -0.24882
      13 -> 26         0.22464
      13 -> 27         0.11494

 Excited State  40:      Singlet-A     13.7911 eV   89.90 nm  f=0.0669  <S**2>=0.000
       7 -> 14         0.12161
       9 -> 16         0.38404
      10 -> 20         0.14960
      10 -> 21         0.21036
      11 -> 21        -0.35446
      12 -> 20        -0.12059
      12 -> 21         0.14112
      12 -> 22        -0.21214

 Excited State  41:      Singlet-A     13.8368 eV   89.60 nm  f=0.0200  <S**2>=0.000
       7 -> 14        -0.18641
       8 -> 15         0.10646
       8 -> 16        -0.11704
       9 -> 16        -0.18743
       9 -> 18        -0.13741
      10 -> 20        -0.11391
      10 -> 21         0.52223
      13 -> 27         0.19479

 Excited State  42:      Singlet-A     13.8853 eV   89.29 nm  f=0.0939  <S**2>=0.000
       7 -> 14         0.41886
       7 -> 15        -0.14379
       9 -> 15         0.18102
       9 -> 17        -0.34355
      10 -> 21         0.11475
      11 -> 21         0.16542
      12 -> 22        -0.11926
      12 -> 23        -0.16461

 Excited State  43:      Singlet-A     14.0415 eV   88.30 nm  f=0.0384  <S**2>=0.000
       7 -> 14        -0.12417
       9 -> 17        -0.36481
       9 -> 18         0.13137
      11 -> 21        -0.15896
      12 -> 22         0.39691
      12 -> 23        -0.11411
      13 -> 27        -0.24406

 Excited State  44:      Singlet-A     14.1793 eV   87.44 nm  f=0.0341  <S**2>=0.000
       7 -> 14         0.33639
       8 -> 15        -0.14868
       9 -> 15         0.14041
       9 -> 17         0.31427
      10 -> 21         0.12300
      11 -> 22        -0.13984
      12 -> 22         0.35800
      12 -> 23         0.14431

 Excited State  45:      Singlet-A     14.2391 eV   87.07 nm  f=0.0043  <S**2>=0.000
       8 -> 15        -0.13412
       9 -> 17        -0.12917
       9 -> 18         0.28816
       9 -> 19        -0.10649
      13 -> 26        -0.16169
      13 -> 27         0.49290

 Excited State  46:      Singlet-A     14.4624 eV   85.73 nm  f=0.1283  <S**2>=0.000
       8 -> 15         0.50640
       8 -> 16         0.30740
       9 -> 17         0.10324
       9 -> 18        -0.10642
      11 -> 22         0.11048
      12 -> 22         0.17212
      13 -> 27         0.13771

 Excited State  47:      Singlet-A     14.5026 eV   85.49 nm  f=0.0319  <S**2>=0.000
       8 -> 15         0.12974
       9 -> 18         0.49414
      10 -> 21         0.12741
      10 -> 22        -0.18062
      11 -> 22         0.16004
      12 -> 22        -0.11619
      12 -> 23         0.16987
      13 -> 26         0.12014
      13 -> 27        -0.15209

 Excited State  48:      Singlet-A     14.6416 eV   84.68 nm  f=0.0069  <S**2>=0.000
       8 -> 15         0.20459
       8 -> 16        -0.27323
       8 -> 17        -0.16800
       9 -> 17         0.13739
       9 -> 18         0.17370
       9 -> 19         0.31140
      10 -> 22         0.13012
      12 -> 23        -0.27633

 Excited State  49:      Singlet-A     14.7021 eV   84.33 nm  f=0.0717  <S**2>=0.000
       8 -> 15        -0.13881
       8 -> 16         0.46515
       8 -> 18         0.10078
       9 -> 18         0.10055
       9 -> 19         0.23343
      10 -> 21         0.14661
      10 -> 22         0.23243
      11 -> 22        -0.16311
      11 -> 23        -0.10578

 Excited State  50:      Singlet-A     14.7455 eV   84.08 nm  f=0.0359  <S**2>=0.000
       7 -> 16         0.10394
      10 -> 22         0.36538
      11 -> 22         0.49639
      12 -> 24        -0.14686

 Excited State  51:      Singlet-A     14.8809 eV   83.32 nm  f=0.1409  <S**2>=0.000
       7 -> 15        -0.10222
       8 -> 15         0.21256
       8 -> 17         0.18301
       8 -> 18        -0.10979
       8 -> 19         0.13324
       9 -> 19        -0.13542
      10 -> 22         0.38568
      10 -> 23        -0.13766
      11 -> 22        -0.26873
      12 -> 23         0.19634

 Excited State  52:      Singlet-A     14.9492 eV   82.94 nm  f=0.0759  <S**2>=0.000
       7 -> 16         0.11703
       8 -> 17         0.20361
       9 -> 17        -0.15377
       9 -> 19         0.39192
       9 -> 20         0.13903
      10 -> 23         0.22477
      11 -> 23         0.16110
      12 -> 23         0.31670

 Excited State  53:      Singlet-A     15.1047 eV   82.08 nm  f=0.0315  <S**2>=0.000
       7 -> 15        -0.10878
       7 -> 16        -0.12397
       8 -> 17        -0.22385
       8 -> 18         0.12155
       9 -> 20         0.44701
      10 -> 23        -0.13017
      11 -> 23        -0.30185

 Excited State  54:      Singlet-A     15.1417 eV   81.88 nm  f=0.0711  <S**2>=0.000
       7 -> 15        -0.13565
       7 -> 16         0.19887
       7 -> 17        -0.10028
       8 -> 17        -0.29335
       8 -> 18         0.10021
       9 -> 17        -0.10416
       9 -> 20        -0.31686
       9 -> 21         0.13923
      10 -> 24         0.14447
      12 -> 23         0.32587

 Excited State  55:      Singlet-A     15.2855 eV   81.11 nm  f=0.0367  <S**2>=0.000
       7 -> 14         0.12879
       7 -> 15         0.49086
       7 -> 16         0.22765
       7 -> 18         0.11826
       8 -> 17        -0.13172
      10 -> 22         0.10490
      11 -> 23        -0.11266
      11 -> 24         0.10678
      12 -> 24         0.23597

 Excited State  56:      Singlet-A     15.2940 eV   81.07 nm  f=0.0231  <S**2>=0.000
       7 -> 15        -0.15364
       8 -> 16        -0.13003
       8 -> 17         0.20859
       8 -> 18         0.21369
       8 -> 19        -0.10048
      10 -> 23         0.32234
      10 -> 24         0.13291
      11 -> 23        -0.28425
      12 -> 24         0.26828

 Excited State  57:      Singlet-A     15.3521 eV   80.76 nm  f=0.0240  <S**2>=0.000
       7 -> 15        -0.17052
       7 -> 16         0.28390
       9 -> 20         0.24849
       9 -> 21         0.34230
      11 -> 23         0.24719
      11 -> 24         0.14706
      12 -> 24         0.19798

 Excited State  58:      Singlet-A     15.4849 eV   80.07 nm  f=0.0372  <S**2>=0.000
       7 -> 16        -0.34635
       8 -> 18        -0.21749
       9 -> 19         0.24100
       9 -> 20        -0.11738
      10 -> 23        -0.11760
      11 -> 24         0.22989
      12 -> 24         0.36031

 Excited State  59:      Singlet-A     15.5829 eV   79.56 nm  f=0.0272  <S**2>=0.000
       7 -> 15         0.16550
       7 -> 16        -0.19293
       8 -> 17         0.11280
       8 -> 18         0.33622
       8 -> 19         0.14572
       9 -> 20        -0.11432
       9 -> 21         0.39535
      10 -> 23        -0.13311
      12 -> 24        -0.16710
      12 -> 26         0.10487

 Excited State  60:      Singlet-A     15.6539 eV   79.20 nm  f=0.0192  <S**2>=0.000
       7 -> 17        -0.18047
       7 -> 18         0.11486
       8 -> 18         0.14244
       9 -> 21        -0.26763
      10 -> 24         0.30282
      11 -> 23         0.12670
      11 -> 24         0.40195

 Excited State  61:      Singlet-A     15.7263 eV   78.84 nm  f=0.1457  <S**2>=0.000
       7 -> 16        -0.14868
       8 -> 17        -0.28609
       9 -> 19        -0.13825
      10 -> 23         0.34366
      11 -> 23         0.21670
      13 -> 28        -0.24367
      13 -> 30         0.10574
      13 -> 32         0.10949

 Excited State  62:      Singlet-A     15.8853 eV   78.05 nm  f=0.0890  <S**2>=0.000
       8 -> 18        -0.29070
       8 -> 19        -0.14112
       9 -> 21         0.13676
       9 -> 22        -0.13974
      10 -> 24         0.49179
      11 -> 24        -0.11426
      12 -> 24        -0.10936
      12 -> 25         0.11023

 Excited State  63:      Singlet-A     15.9621 eV   77.67 nm  f=0.0907  <S**2>=0.000
       8 -> 17        -0.11706
       8 -> 18        -0.16947
       8 -> 21         0.10464
      10 -> 23         0.20059
      11 -> 23        -0.18309
      11 -> 24         0.33141
      12 -> 24        -0.24121
      12 -> 25        -0.24362
      13 -> 28         0.24042

 Excited State  64:      Singlet-A     16.0707 eV   77.15 nm  f=0.0123  <S**2>=0.000
       7 -> 16         0.10581
       7 -> 17         0.32460
       8 -> 18        -0.10114
       8 -> 19         0.42325
       8 -> 20         0.12399
      10 -> 24         0.15824
      11 -> 23        -0.10734
      13 -> 28        -0.22227
      13 -> 30         0.12437

 Excited State  65:      Singlet-A     16.1290 eV   76.87 nm  f=0.0242  <S**2>=0.000
       7 -> 17         0.38600
       8 -> 19        -0.36563
       8 -> 20        -0.14947
      10 -> 23        -0.17961
      11 -> 24         0.20072
      12 -> 24        -0.11786
      13 -> 28        -0.16701

 Excited State  66:      Singlet-A     16.1947 eV   76.56 nm  f=0.0394  <S**2>=0.000
       7 -> 15        -0.10436
       7 -> 17         0.23052
       8 -> 19         0.10941
       8 -> 20        -0.16651
       9 -> 21        -0.12401
       9 -> 22        -0.15093
      11 -> 25         0.11230
      12 -> 25         0.23752
      12 -> 26         0.27971
      13 -> 28         0.36682

 Excited State  67:      Singlet-A     16.2966 eV   76.08 nm  f=0.0550  <S**2>=0.000
       8 -> 20         0.53698
       9 -> 21        -0.11925
       9 -> 22        -0.26163
      11 -> 25         0.14705
      12 -> 25        -0.12729

 Excited State  68:      Singlet-A     16.3926 eV   75.63 nm  f=0.0255  <S**2>=0.000
       7 -> 17        -0.12621
       7 -> 18         0.37871
       7 -> 19        -0.13636
       8 -> 18        -0.10052
       8 -> 20        -0.14002
       9 -> 22        -0.28970
      11 -> 23        -0.12396
      11 -> 25        -0.16465
      11 -> 26         0.12579
      12 -> 26         0.20264
      13 -> 28        -0.14881

 Excited State  69:      Singlet-A     16.4182 eV   75.52 nm  f=0.0486  <S**2>=0.000
       7 -> 17        -0.10722
       7 -> 18         0.11426
       8 -> 20         0.22939
       8 -> 21         0.15562
       9 -> 22         0.26608
      11 -> 25         0.12542
      12 -> 25         0.43833
      12 -> 27         0.10968

 Excited State  70:      Singlet-A     16.5088 eV   75.10 nm  f=0.0944  <S**2>=0.000

 The electronic state is 1-A.
 Alpha  occ. eigenvalues --  -14.40640 -10.30083 -10.26647  -0.97963  -0.82733
 Alpha  occ. eigenvalues --   -0.69604  -0.57663  -0.55077  -0.50970  -0.45011
 Alpha  occ. eigenvalues --   -0.44525  -0.42639  -0.32024
 Alpha virt. eigenvalues --    0.10968   0.14664   0.15704   0.17857   0.19173
 Alpha virt. eigenvalues --    0.20888   0.21808   0.24365   0.27252   0.29471
 Alpha virt. eigenvalues --    0.31764   0.35769   0.36230   0.38996   0.45491

 Mulliken charges:
               1
     1  C   -0.335978
     2  C   -0.050112
     3  N   -0.533540
     4  H    0.107475
     5  H    0.097693
     6  H    0.118760
     7  H    0.075296
     8  H    0.091473
     9  H    0.212883
    10  H    0.216049
 Sum of Mulliken charges =  -0.00000

 Dipole moment (field-independent basis, Debye):
    X=              0.2106    Y=              0.5972    Z=              1.1590  Tot=              1.3207
 Quadrupole moment (field-independent basis, Debye-Ang):
   XX=            -19.2654   YY=            -20.6497   ZZ=            -21.3490
   XY=              0.7045   XZ=              1.6460   YZ=             -1.7645

 Normal termination of Gaussian 16 at Sat Aug 14 06:30:47 2021.
