 Gaussian 16, Revision C.01,
 Gaussian 16:  EM64L-G16RevC.01  3-Jul-2019

 ----------------------------------------------------------------------
 #P TD(Nstates=10000) wB97XD/def2TZVP SCF(maxcycles=100) Int(Grid=ultra
 fine)
 ----------------------------------------------------------------------

 ---------------------
 xGDB7_00001_tier4.com
 ---------------------
 Symbolic Z-matrix:
 Charge =  0 Multiplicity = 1

                         Standard orientation:
 ---------------------------------------------------------------------
 Center     Atomic      Atomic             Coordinates (Angstroms)
 Number     Number       Type             X           Y           Z
 ---------------------------------------------------------------------
      1          6           0       -1.131573   -0.504386    0.000000
      2          6           0        0.000000    0.472223    0.000000
      3          6           0        1.284136    0.150792    0.000000
      4          1           0       -1.767446   -0.362776    0.877699
      5          1           0       -0.770122   -1.533458    0.000000
      6          1           0       -1.767446   -0.362776   -0.877699
      7          1           0       -0.276551    1.523465    0.000000
      8          1           0        1.608435   -0.884555    0.000000
      9          1           0        2.057749    0.908327    0.000000
 ---------------------------------------------------------------------

 SCF Done:  E(RwB97XD) =  -117.910065474     A.U. after   13 cycles

 Excitation energies and oscillator strengths:

 Excited State   1:      Singlet-A'     7.5960 eV  163.22 nm  f=0.4253  <S**2>=0.000
      12 -> 13         0.69931
 This state for optimization and/or second-order correction.
 Total Energy, E(TD-HF/TD-DFT) =  -117.630916142
 Copying the excited state density for this state as the 1-particle RhoCI density.

 Excited State   2:      Singlet-A"     8.1762 eV  151.64 nm  f=0.0022  <S**2>=0.000
      11 -> 13        -0.16693
      12 -> 14         0.63025
      12 -> 15         0.19892
      12 -> 16         0.15958

 Excited State   3:      Singlet-A"     8.3285 eV  148.87 nm  f=0.0001  <S**2>=0.000
      11 -> 13         0.67501
      12 -> 14         0.17202

 Excited State   4:      Singlet-A"     8.7641 eV  141.47 nm  f=0.0000  <S**2>=0.000
      12 -> 14        -0.15194
      12 -> 15         0.66209
      12 -> 16        -0.11714

 Excited State   5:      Singlet-A"     9.1474 eV  135.54 nm  f=0.0106  <S**2>=0.000
      10 -> 13         0.12910
      12 -> 14        -0.18919
      12 -> 16         0.65205

 Excited State   6:      Singlet-A"     9.2398 eV  134.18 nm  f=0.0017  <S**2>=0.000
       7 -> 13         0.10464
       8 -> 13        -0.17118
      10 -> 13         0.65488
      12 -> 16        -0.13853

 Excited State   7:      Singlet-A"     9.9744 eV  124.30 nm  f=0.0002  <S**2>=0.000
      12 -> 18         0.68737
      12 -> 19         0.10035

 Excited State   8:      Singlet-A'    10.1166 eV  122.55 nm  f=0.0665  <S**2>=0.000
      12 -> 17         0.69680

 Excited State   9:      Singlet-A"    10.2972 eV  120.41 nm  f=0.0102  <S**2>=0.000
      12 -> 18        -0.10982
      12 -> 19         0.68212

 Excited State  10:      Singlet-A"    10.5217 eV  117.84 nm  f=0.0003  <S**2>=0.000
       8 -> 13         0.67411
      10 -> 13         0.16940

 Excited State  11:      Singlet-A'    10.5923 eV  117.05 nm  f=0.0252  <S**2>=0.000
      10 -> 14         0.11763
      11 -> 14         0.65375
      11 -> 15         0.14375
      11 -> 16         0.11590

 Excited State  12:      Singlet-A'    11.0537 eV  112.16 nm  f=0.1265  <S**2>=0.000
      10 -> 14         0.64282
      11 -> 16        -0.19744

 Excited State  13:      Singlet-A'    11.2667 eV  110.04 nm  f=0.1578  <S**2>=0.000
       9 -> 13         0.55231
      11 -> 14         0.10987
      11 -> 15        -0.38510

 Excited State  14:      Singlet-A'    11.3136 eV  109.59 nm  f=0.1319  <S**2>=0.000
       9 -> 13         0.40994
      10 -> 14         0.10777
      11 -> 14        -0.12269
      11 -> 15         0.53736

 Excited State  15:      Singlet-A"    11.3254 eV  109.47 nm  f=0.0365  <S**2>=0.000
      12 -> 20         0.67961
      12 -> 21         0.14241

 Excited State  16:      Singlet-A'    11.5259 eV  107.57 nm  f=0.1711  <S**2>=0.000
       8 -> 14        -0.14808
      10 -> 14         0.18082
      11 -> 14        -0.11498
      11 -> 15        -0.11309
      11 -> 16         0.62290

 Excited State  17:      Singlet-A"    11.8752 eV  104.41 nm  f=0.0024  <S**2>=0.000
       7 -> 13         0.67861
      10 -> 13        -0.11905
      12 -> 23         0.10377

 Excited State  18:      Singlet-A'    11.9734 eV  103.55 nm  f=0.2309  <S**2>=0.000
       8 -> 14        -0.11383
      10 -> 15         0.45394
      11 -> 18         0.22453
      12 -> 22         0.41055
      12 -> 24        -0.12797

 Excited State  19:      Singlet-A"    12.0952 eV  102.51 nm  f=0.2489  <S**2>=0.000
       9 -> 14         0.54296
       9 -> 16        -0.12696
      12 -> 21        -0.37414
      12 -> 23        -0.15181

 Excited State  20:      Singlet-A'    12.1455 eV  102.08 nm  f=0.0818  <S**2>=0.000
      10 -> 15         0.47681
      10 -> 16        -0.21275
      12 -> 22        -0.41490
      12 -> 24         0.10329

 Excited State  21:      Singlet-A"    12.1726 eV  101.86 nm  f=0.0190  <S**2>=0.000
       9 -> 14         0.32195
      10 -> 17         0.11357
      11 -> 17         0.31966
      12 -> 20        -0.11780
      12 -> 21         0.48903

 Excited State  22:      Singlet-A"    12.2740 eV  101.01 nm  f=0.0049  <S**2>=0.000
       8 -> 17         0.12011
       9 -> 14        -0.23129
      11 -> 17         0.58583
      12 -> 21        -0.22715
      12 -> 23        -0.10502

 Excited State  23:      Singlet-A'    12.3187 eV  100.65 nm  f=0.0135  <S**2>=0.000
       8 -> 16         0.15974
      11 -> 18         0.60723
      11 -> 19        -0.17163
      12 -> 22        -0.14774

 Excited State  24:      Singlet-A"    12.4679 eV   99.44 nm  f=0.1831  <S**2>=0.000
       6 -> 13        -0.10069
       7 -> 13        -0.10268
      10 -> 17         0.12034
      12 -> 21        -0.14870
      12 -> 23         0.63560

 Excited State  25:      Singlet-A'    12.5327 eV   98.93 nm  f=0.0033  <S**2>=0.000
       8 -> 14        -0.12898
      10 -> 16         0.58131
      10 -> 18         0.17382
      12 -> 22        -0.22261

 Excited State  26:      Singlet-A'    12.6727 eV   97.84 nm  f=0.2305  <S**2>=0.000
       8 -> 15         0.19800
      10 -> 15        -0.10207
      11 -> 18         0.15453
      11 -> 19         0.61130

 Excited State  27:      Singlet-A"    12.6987 eV   97.64 nm  f=0.0644  <S**2>=0.000
       7 -> 17        -0.11800
      10 -> 17         0.65348
      11 -> 17        -0.13817
      12 -> 23        -0.11264

 Excited State  28:      Singlet-A'    12.9278 eV   95.91 nm  f=0.0261  <S**2>=0.000
       8 -> 14         0.59022
      10 -> 15         0.10761
      10 -> 18         0.25422
      11 -> 16         0.12864
      11 -> 20        -0.10044

 Excited State  29:      Singlet-A'    13.1203 eV   94.50 nm  f=0.1015  <S**2>=0.000
       8 -> 14        -0.16651
       8 -> 15        -0.14917
      10 -> 16        -0.13384
      10 -> 18         0.45570
      10 -> 19        -0.41075

 Excited State  30:      Singlet-A'    13.2379 eV   93.66 nm  f=0.1971  <S**2>=0.000
       8 -> 14        -0.13509
       8 -> 15         0.15723
       8 -> 16         0.11833
       9 -> 17        -0.16548
      10 -> 16        -0.12132
      10 -> 18         0.33611
      10 -> 19         0.35124
      10 -> 20         0.11502
      11 -> 19        -0.13348
      12 -> 24         0.27044

 Excited State  31:      Singlet-A"    13.2671 eV   93.45 nm  f=0.0005  <S**2>=0.000
       9 -> 15         0.60163
       9 -> 16        -0.17366
       9 -> 18        -0.12473
       9 -> 19         0.15882
      12 -> 25         0.19773

 Excited State  32:      Singlet-A'    13.4542 eV   92.15 nm  f=0.0824  <S**2>=0.000
       8 -> 15         0.37898
      11 -> 19        -0.14998
      11 -> 20        -0.31251
      12 -> 22        -0.18571
      12 -> 24        -0.37042

 Excited State  33:      Singlet-A'    13.6889 eV   90.57 nm  f=0.0167  <S**2>=0.000
       8 -> 15         0.39815
       9 -> 17        -0.17749
      10 -> 16         0.13393
      10 -> 19        -0.32869
      10 -> 20        -0.17818
      11 -> 20         0.14110
      12 -> 24         0.25781

 Excited State  34:      Singlet-A"    13.7264 eV   90.33 nm  f=0.0242  <S**2>=0.000
       9 -> 15         0.25026
       9 -> 16         0.44820
       9 -> 18         0.42599
      12 -> 26         0.10274

 Excited State  35:      Singlet-A"    13.7917 eV   89.90 nm  f=0.0967  <S**2>=0.000
       6 -> 13        -0.13290
       9 -> 15        -0.13303
      12 -> 23        -0.11382
      12 -> 25         0.60228
      12 -> 26         0.20416

 Excited State  36:      Singlet-A'    13.9076 eV   89.15 nm  f=0.1077  <S**2>=0.000
       7 -> 14         0.13882
       8 -> 15         0.21094
       8 -> 16         0.37534
       9 -> 17         0.43837
      11 -> 20        -0.11654
      12 -> 24         0.18084

 Excited State  37:      Singlet-A'    13.9202 eV   89.07 nm  f=0.0253  <S**2>=0.000
       8 -> 15         0.11884
       8 -> 16         0.34264
       9 -> 17        -0.21476
      11 -> 18        -0.12359
      11 -> 20         0.35744
      11 -> 21         0.11370
      11 -> 23        -0.11600
      12 -> 24        -0.29855

 Excited State  38:      Singlet-A"    13.9513 eV   88.87 nm  f=0.0052  <S**2>=0.000
       9 -> 16        -0.14058
      12 -> 25        -0.19863
      12 -> 26         0.62777
      12 -> 27        -0.12752

 Excited State  39:      Singlet-A'    14.1193 eV   87.81 nm  f=0.1394  <S**2>=0.000
       8 -> 15         0.13188
       8 -> 16        -0.34485
       9 -> 17         0.34169
      10 -> 20         0.12853
      11 -> 19        -0.10678
      11 -> 20         0.35158
      11 -> 21         0.16658

 Excited State  40:      Singlet-A'    14.2897 eV   86.76 nm  f=0.0308  <S**2>=0.000
       7 -> 14        -0.25229
       7 -> 15        -0.11126
       8 -> 18        -0.34279
      10 -> 19         0.10925
      10 -> 20        -0.24530
      11 -> 20        -0.10661
      11 -> 21         0.40694

 Excited State  41:      Singlet-A'    14.3957 eV   86.13 nm  f=0.0679  <S**2>=0.000
       7 -> 14         0.55762
       7 -> 16         0.11305
       8 -> 18        -0.20099
      10 -> 20        -0.21739
      11 -> 23         0.14063

 Excited State  42:      Singlet-A"    14.3960 eV   86.12 nm  f=0.0043  <S**2>=0.000
       9 -> 19         0.17213
      11 -> 22         0.65356

 Excited State  43:      Singlet-A"    14.4828 eV   85.61 nm  f=0.0112  <S**2>=0.000
       8 -> 17         0.52853
       9 -> 16        -0.17717
       9 -> 18         0.12548
       9 -> 19        -0.29848
      10 -> 22        -0.10588
      11 -> 22         0.17142

 Excited State  44:      Singlet-A'    14.5054 eV   85.47 nm  f=0.1069  <S**2>=0.000
       7 -> 18        -0.10462
       8 -> 18        -0.25664
       8 -> 19         0.31006
       9 -> 17        -0.11288
      10 -> 19        -0.12719
      10 -> 20         0.35105
      11 -> 20        -0.11344
      11 -> 21         0.12701
      11 -> 23         0.29286

 Excited State  45:      Singlet-A"    14.5623 eV   85.14 nm  f=0.0174  <S**2>=0.000
       6 -> 13         0.17133
       8 -> 17         0.40183
       9 -> 16         0.14847
       9 -> 18        -0.14774
       9 -> 19         0.40440
       9 -> 20         0.12584
      10 -> 22         0.14365
      11 -> 22        -0.12462
      11 -> 24         0.10930

 Excited State  46:      Singlet-A"    14.7818 eV   83.88 nm  f=0.0003  <S**2>=0.000
       6 -> 13         0.10576
       9 -> 16        -0.38528
       9 -> 18         0.40751
       9 -> 19         0.17244
       9 -> 20         0.22295
       9 -> 21        -0.19708
      12 -> 27        -0.13598

 Excited State  47:      Singlet-A'    14.8113 eV   83.71 nm  f=0.1664  <S**2>=0.000
       7 -> 15         0.36236
       7 -> 16        -0.10122
       7 -> 18         0.11749
       8 -> 18        -0.26518
       8 -> 19        -0.22083
      10 -> 20         0.13818
      10 -> 21         0.32499
      11 -> 23        -0.19370

 Excited State  48:      Singlet-A'    14.8735 eV   83.36 nm  f=0.0594  <S**2>=0.000
       7 -> 14         0.15005
       7 -> 15        -0.31202
       8 -> 18         0.11819
       8 -> 19        -0.24399
      10 -> 19        -0.11090
      10 -> 20         0.31345
      11 -> 20        -0.11683
      11 -> 21         0.24858
      11 -> 23        -0.25198

 Excited State  49:      Singlet-A"    14.9222 eV   83.09 nm  f=0.1391  <S**2>=0.000
       6 -> 13         0.55278
      10 -> 22        -0.33158
      12 -> 25         0.10118
      12 -> 27         0.17664

 Excited State  50:      Singlet-A"    15.0009 eV   82.65 nm  f=0.0022  <S**2>=0.000
       6 -> 13        -0.11793
      10 -> 22         0.14209
      12 -> 26         0.12401
      12 -> 27         0.63803

 Excited State  51:      Singlet-A'    15.0803 eV   82.22 nm  f=0.0479  <S**2>=0.000
       7 -> 15         0.32928
       8 -> 18         0.34833
       8 -> 19        -0.11280
       8 -> 20        -0.10708
      11 -> 21         0.32442
      11 -> 23         0.25982

 Excited State  52:      Singlet-A'    15.1104 eV   82.05 nm  f=0.1231  <S**2>=0.000
       7 -> 14         0.11923
       7 -> 15         0.15653
       8 -> 19         0.43357
      11 -> 20        -0.13216
      11 -> 21         0.14654
      11 -> 23        -0.41364

 Excited State  53:      Singlet-A'    15.2964 eV   81.05 nm  f=0.0801  <S**2>=0.000
       7 -> 16         0.59373
      10 -> 21         0.10555
      10 -> 23         0.16048
      12 -> 28        -0.16359

 Excited State  54:      Singlet-A"    15.3169 eV   80.95 nm  f=0.2563  <S**2>=0.000
       6 -> 13         0.25079
       7 -> 17        -0.11326
       9 -> 19        -0.26314
      10 -> 22         0.52592
      12 -> 29         0.10632

 Excited State  55:      Singlet-A'    15.6544 eV   79.20 nm  f=0.0144  <S**2>=0.000
       7 -> 16         0.17856
       7 -> 19         0.12926
      10 -> 23        -0.27048
      12 -> 28         0.54945

 Excited State  56:      Singlet-A"    15.7375 eV   78.78 nm  f=0.0040  <S**2>=0.000
       8 -> 22         0.25548
      10 -> 22        -0.10569
      11 -> 24         0.62255

 Excited State  57:      Singlet-A'    15.7410 eV   78.77 nm  f=0.0287  <S**2>=0.000
       7 -> 18         0.10557
       8 -> 20        -0.25140
      10 -> 21        -0.21999
      10 -> 23         0.45171
      11 -> 21        -0.13128
      11 -> 25        -0.13024
      12 -> 28         0.26241

 Excited State  58:      Singlet-A'    15.7915 eV   78.51 nm  f=0.0414  <S**2>=0.000
       7 -> 15        -0.18869
       7 -> 16        -0.14470
       7 -> 18         0.18710
       7 -> 19        -0.11103
       8 -> 20         0.17339
       8 -> 23        -0.14333
      10 -> 21         0.38381
      10 -> 23         0.25302
      10 -> 25         0.12792
      11 -> 23         0.12196
      11 -> 25         0.16291

 Excited State  59:      Singlet-A'    15.8789 eV   78.08 nm  f=0.0953  <S**2>=0.000
       7 -> 15         0.14031
       7 -> 19         0.10800
       8 -> 19        -0.15861
       8 -> 20         0.39427
       9 -> 22         0.11715
      10 -> 21        -0.24244
      10 -> 23         0.17089
      11 -> 25         0.31281

 Excited State  60:      Singlet-A"    15.9625 eV   77.67 nm  f=0.0022  <S**2>=0.000
       7 -> 17         0.46656
       9 -> 18        -0.10314
       9 -> 19        -0.12730
       9 -> 20         0.37523
       9 -> 23        -0.18647
      10 -> 24        -0.14976
      12 -> 29         0.10872

 Excited State  61:      Singlet-A"    16.0802 eV   77.10 nm  f=0.0610  <S**2>=0.000
       7 -> 17        -0.28888
       9 -> 18        -0.17956
       9 -> 19        -0.15073
       9 -> 20         0.39104
       9 -> 21        -0.13629
      12 -> 29        -0.37433

 Excited State  62:      Singlet-A'    16.1675 eV   76.69 nm  f=0.0025  <S**2>=0.000
       7 -> 18         0.45068
       7 -> 19        -0.17204
       8 -> 20         0.25847
       9 -> 22         0.13270
      10 -> 21        -0.16077
      11 -> 21         0.10321
      11 -> 25        -0.28839

 Excited State  63:      Singlet-A'    16.2006 eV   76.53 nm  f=0.0608  <S**2>=0.000
       7 -> 18         0.37399
       8 -> 20        -0.23591
       8 -> 21         0.11390
       9 -> 22        -0.12736
      10 -> 21        -0.13281
      10 -> 23        -0.10443
      10 -> 25        -0.21947
      11 -> 25         0.36731
      12 -> 28        -0.11086

 Excited State  64:      Singlet-A"    16.2681 eV   76.21 nm  f=0.2305  <S**2>=0.000
       6 -> 13        -0.13916
       7 -> 17        -0.23970
       8 -> 22         0.12731
       9 -> 20         0.20902
       9 -> 21         0.12074
      10 -> 22        -0.13971
      10 -> 24         0.21164
      12 -> 29         0.49488

 Excited State  65:      Singlet-A'    16.4549 eV   75.35 nm  f=0.1331  <S**2>=0.000
       8 -> 20        -0.18195
       9 -> 22         0.55667
       9 -> 24         0.10682
      11 -> 25         0.14643
      11 -> 26        -0.25119

 Excited State  66:      Singlet-A"    16.4900 eV   75.19 nm  f=0.0187  <S**2>=0.000
       7 -> 17         0.24742
       7 -> 22        -0.10846
       8 -> 22         0.45865
      10 -> 24         0.34694
      11 -> 24        -0.20751
      12 -> 29        -0.12308

 Excited State  67:      Singlet-A'    16.5456 eV   74.93 nm  f=0.0008  <S**2>=0.000
       6 -> 14         0.13304
       7 -> 19         0.52268
       8 -> 21         0.17608
      10 -> 20         0.11686
      10 -> 23         0.11245
      10 -> 25        -0.12518
      11 -> 25        -0.24675

 Excited State  68:      Singlet-A"    16.6391 eV   74.51 nm  f=0.0116  <S**2>=0.000
       8 -> 22        -0.15879
       9 -> 18         0.15713
       9 -> 19         0.11396
       9 -> 21         0.44924
       9 -> 23        -0.35334
       9 -> 25         0.13364
      12 -> 29        -0.21071

 Excited State  69:      Singlet-A'    16.6946 eV   74.27 nm  f=0.1664  <S**2>=0.000
       6 -> 14        -0.21687
       7 -> 18         0.12463
       7 -> 19         0.23350
       7 -> 20        -0.16793
       8 -> 21        -0.11423
       8 -> 23        -0.21806
      10 -> 25         0.33699
      11 -> 26         0.34327

 Excited State  70:      Singlet-A"    16.7457 eV   74.04 nm  f=0.0072  <S**2>=0.000
       7 -> 17         0.13926
       7 -> 22        -0.15493
       8 -> 22        -0.35816
       9 -> 21        -0.10486
       9 -> 23         0.18494
      10 -> 24         0.46455
      11 -> 24         0.13712
      11 -> 28        -0.16710

 Excited State  71:      Singlet-A'    16.8655 eV   73.51 nm  f=0.0550  <S**2>=0.000
       6 -> 14         0.48488
       6 -> 15         0.14105
       8 -> 20        -0.14663
       8 -> 21        -0.11979
       8 -> 23        -0.28015
      10 -> 26         0.20350
      11 -> 26         0.15060

 Excited State  72:      Singlet-A'    16.9836 eV   73.00 nm  f=0.0019  <S**2>=0.000
       6 -> 14         0.36978
       8 -> 23         0.26740
       9 -> 22        -0.13715
      10 -> 25         0.38332
      10 -> 26        -0.16603
      11 -> 25         0.10793
      12 -> 28        -0.10030

 Excited State  73:      Singlet-A'    17.0878 eV   72.56 nm  f=0.0328  <S**2>=0.000
       6 -> 15        -0.29497
       7 -> 19        -0.13213
       8 -> 21         0.50587
       8 -> 23        -0.17383
      11 -> 26         0.14595

 Excited State  74:      Singlet-A'    17.1396 eV   72.34 nm  f=0.0745  <S**2>=0.000
       6 -> 15         0.15827
       7 -> 20        -0.15813
       8 -> 23         0.36755
       9 -> 22         0.13727
      10 -> 21         0.10477
      10 -> 23         0.10349
      10 -> 25        -0.15460
      11 -> 26         0.41661

 Excited State  75:      Singlet-A"    17.2129 eV   72.03 nm  f=0.0045  <S**2>=0.000
       9 -> 20         0.20398
       9 -> 21         0.37832
       9 -> 23         0.47039
       9 -> 25         0.10416
       9 -> 26        -0.17946
       9 -> 27        -0.12026

 Excited State  76:      Singlet-A"    17.4915 eV   70.88 nm  f=0.0046  <S**2>=0.000
      12 -> 30         0.58659
      12 -> 31        -0.32526
      12 -> 32         0.15986

 Excited State  77:      Singlet-A'    17.5185 eV   70.77 nm  f=0.0104  <S**2>=0.000
       6 -> 14        -0.10987
       6 -> 15         0.40121
       7 -> 20         0.26205
       8 -> 21         0.17927
      10 -> 25         0.19380
      11 -> 27         0.33999

 Excited State  78:      Singlet-A'    17.5780 eV   70.53 nm  f=0.0897  <S**2>=0.000
       6 -> 15        -0.33323
       7 -> 20         0.14087
       8 -> 23         0.24265
      10 -> 26         0.44694
      11 -> 27         0.22086

 Excited State  79:      Singlet-A"    17.6565 eV   70.22 nm  f=0.0000  <S**2>=0.000
       6 -> 17         0.14730
       7 -> 22         0.30720
       7 -> 24        -0.10782
       8 -> 22        -0.15882
       8 -> 24        -0.29606
      10 -> 24         0.16793
      10 -> 28        -0.11376
      11 -> 28         0.44365

 Excited State  80:      Singlet-A'    17.6608 eV   70.20 nm  f=0.0527  <S**2>=0.000
       6 -> 16         0.32827
       7 -> 20         0.43723
       8 -> 21        -0.19850
       9 -> 22         0.10925
      10 -> 26        -0.19468
      11 -> 26         0.17052

 Excited State  81:      Singlet-A'    17.8409 eV   69.49 nm  f=0.2226  <S**2>=0.000
       6 -> 15        -0.18313
       7 -> 20        -0.10613
       7 -> 21        -0.12895
       7 -> 23        -0.14957
       8 -> 21        -0.14285
       8 -> 25         0.16397
      10 -> 25        -0.13813
      10 -> 26        -0.29287
      10 -> 27        -0.10970

 The electronic state is 1-A'.
 Alpha  occ. eigenvalues --  -10.28686 -10.27778 -10.27081  -0.88867  -0.78352
 Alpha  occ. eigenvalues --   -0.64612  -0.55686  -0.50818  -0.50031  -0.45529
 Alpha  occ. eigenvalues --   -0.42721  -0.34000
 Alpha virt. eigenvalues --    0.08464   0.12799   0.15669   0.16791   0.19261
 Alpha virt. eigenvalues --    0.19580   0.21189   0.24821   0.28613   0.28741
 Alpha virt. eigenvalues --    0.29364   0.33567   0.33952   0.36388   0.40076

 Mulliken charges:
               1
     1  C   -0.300428
     2  C   -0.104011
     3  C   -0.296869
     4  H    0.118918
     5  H    0.109073
     6  H    0.118918
     7  H    0.113971
     8  H    0.117158
     9  H    0.123270
 Sum of Mulliken charges =  -0.00000

 Dipole moment (field-independent basis, Debye):
    X=             -0.4078    Y=             -0.0381    Z=             -0.0000  Tot=              0.4095
 Quadrupole moment (field-independent basis, Debye-Ang):
   XX=            -19.0692   YY=            -18.9524   ZZ=            -21.8087
   XY=             -0.2230   XZ=             -0.0000   YZ=             -0.0000

 1\1\GINC-HEL16\SP\RwB97XD TD-FC\def2TZVP\C3H6\PRAKRITI\14-Aug-2021\0\\
 #P TD(Nstates=10000) wB97XD/def2TZVP SCF(maxcycles=100) Int(Grid=ultra
 fine)\\xGDB7_00001_tier4.com\\0,1\C,0,-1.131573,-0.504386,0.\C,0,0.,0.
 472223,0.\C,0,1.284136,0.150792,0.\H,0,-1.767446,-0.362775,0.877699\H,
 0,-0.770123,-1.533458,0.\H,0,-1.767446,-0.362775,-0.877699\H,0,-0.2765
 51,1.523465,0.\H,0,1.608435,-0.884556,0.\H,0,2.057749,0.908326,0.\\Ver
 sion=EM64L-G16RevC.01\State=1-A'\HF=-117.9100655\RMSD=3.539e-09\PG=CS
 [SG(C3H4),X(H2)]\\@

 Normal termination of Gaussian 16 at Sat Aug 14 06:23:38 2021.
