 Gaussian 16, Revision C.01,
 Gaussian 16:  EM64L-G16RevC.01  3-Jul-2019

 ----------------------------------------------------------------------
 #P TD(Nstates=10000) wB97XD/def2TZVP SCF(maxcycles=100) Int(Grid=ultra
 fine)
 ----------------------------------------------------------------------

 ---------------------
 xGDB7_00001_tier4.com
 ---------------------
 Symbolic Z-matrix:
 Charge =  0 Multiplicity = 1

                         Standard orientation:
 ---------------------------------------------------------------------
 Center     Atomic      Atomic             Coordinates (Angstroms)
 Number     Number       Type             X           Y           Z
 ---------------------------------------------------------------------
      1          6           0        0.630149   -0.000001   -0.000003
      2          9           0       -0.748512    0.000002    0.000001
      3          1           0        0.985250    0.897475   -0.509314
      4          1           0        0.985222   -0.889832   -0.522562
      5          1           0        0.985245   -0.007652    1.031883
 ---------------------------------------------------------------------

 SCF Done:  E(RwB97XD) =  -139.762277072     A.U. after   12 cycles

 Excitation energies and oscillator strengths:

 Excited State   1:      Singlet-A      9.9523 eV  124.58 nm  f=0.0149  <S**2>=0.000
       9 -> 10         0.51489
       9 -> 11        -0.46605
 This state for optimization and/or second-order correction.
 Total Energy, E(TD-HF/TD-DFT) =  -139.396537360
 Copying the excited state density for this state as the 1-particle RhoCI density.

 Excited State   2:      Singlet-A      9.9523 eV  124.58 nm  f=0.0149  <S**2>=0.000
       8 -> 10         0.51489
       8 -> 11        -0.46606

 Excited State   3:      Singlet-A     10.6091 eV  116.87 nm  f=0.1021  <S**2>=0.000
       9 -> 10         0.47012
       9 -> 11         0.51782

 Excited State   4:      Singlet-A     10.6091 eV  116.87 nm  f=0.1021  <S**2>=0.000
       8 -> 10         0.47012
       8 -> 11         0.51782

 Excited State   5:      Singlet-A     11.9427 eV  103.82 nm  f=0.0000  <S**2>=0.000
       8 -> 12         0.42615
       8 -> 13         0.25306
       9 -> 12         0.25309
       9 -> 13        -0.42612

 Excited State   6:      Singlet-A     12.0262 eV  103.10 nm  f=0.1007  <S**2>=0.000
       8 -> 13        -0.48721
       9 -> 12         0.48724

 Excited State   7:      Singlet-A     12.0262 eV  103.09 nm  f=0.1007  <S**2>=0.000
       8 -> 12         0.48720
       9 -> 13         0.48726

 Excited State   8:      Singlet-A     12.4632 eV   99.48 nm  f=0.1333  <S**2>=0.000
       8 -> 12        -0.25226
       8 -> 13         0.42477
       9 -> 12         0.42471
       9 -> 13         0.25223

 Excited State   9:      Singlet-A     13.7763 eV   90.00 nm  f=0.0992  <S**2>=0.000
       7 -> 10         0.52118
       7 -> 11        -0.41896
       8 -> 15        -0.12468
       9 -> 14         0.12473

 Excited State  10:      Singlet-A     13.7764 eV   90.00 nm  f=0.0992  <S**2>=0.000
       6 -> 10         0.52118
       6 -> 11        -0.41896
       8 -> 14        -0.12472
       9 -> 15        -0.12470

 Excited State  11:      Singlet-A     14.2120 eV   87.24 nm  f=0.1459  <S**2>=0.000
       5 -> 10        -0.32711
       5 -> 11         0.37660
       8 -> 15        -0.33523
       9 -> 14        -0.33534

 Excited State  12:      Singlet-A     14.2391 eV   87.07 nm  f=0.0000  <S**2>=0.000
       8 -> 14         0.47819
       8 -> 15        -0.13854
       9 -> 14        -0.13859
       9 -> 15        -0.47818

 Excited State  13:      Singlet-A     14.3832 eV   86.20 nm  f=0.0694  <S**2>=0.000
       7 -> 10         0.45706
       7 -> 11         0.49319
       8 -> 15         0.11142
       9 -> 14        -0.11140

 Excited State  14:      Singlet-A     14.3832 eV   86.20 nm  f=0.0694  <S**2>=0.000
       6 -> 10         0.45706
       6 -> 11         0.49317
       8 -> 14         0.11144
       9 -> 15         0.11144

 Excited State  15:      Singlet-A     14.4944 eV   85.54 nm  f=0.0363  <S**2>=0.000
       6 -> 11        -0.14406
       7 -> 11         0.17889
       8 -> 14         0.36045
       8 -> 15        -0.27854
       9 -> 14         0.27862
       9 -> 15         0.36041

 Excited State  16:      Singlet-A     14.4944 eV   85.54 nm  f=0.0363  <S**2>=0.000
       6 -> 11         0.17897
       7 -> 11         0.14408
       8 -> 14        -0.27853
       8 -> 15        -0.36039
       9 -> 14         0.36045
       9 -> 15        -0.27860

 Excited State  17:      Singlet-A     14.5553 eV   85.18 nm  f=0.0099  <S**2>=0.000
       5 -> 10         0.60041
       8 -> 15        -0.22777
       9 -> 14        -0.22742

 Excited State  18:      Singlet-A     15.1834 eV   81.66 nm  f=0.3700  <S**2>=0.000
       5 -> 10         0.14661
       5 -> 11         0.54051
       6 -> 13        -0.15430
       7 -> 12        -0.15433
       8 -> 15         0.23351
       9 -> 14         0.23347

 Excited State  19:      Singlet-A     15.6558 eV   79.19 nm  f=0.0000  <S**2>=0.000
       6 -> 12        -0.46949
       6 -> 13        -0.15842
       7 -> 12        -0.15844
       7 -> 13         0.46954

 Excited State  20:      Singlet-A     15.8086 eV   78.43 nm  f=0.1506  <S**2>=0.000
       5 -> 12        -0.14523
       5 -> 13         0.30424
       6 -> 12         0.16254
       6 -> 13         0.35690
       7 -> 12        -0.35686
       7 -> 13         0.16256
       8 -> 16        -0.21798

 Excited State  21:      Singlet-A     15.8086 eV   78.43 nm  f=0.1506  <S**2>=0.000
       5 -> 12        -0.30446
       5 -> 13        -0.14536
       6 -> 12         0.35679
       6 -> 13        -0.16254
       7 -> 12         0.16245
       7 -> 13         0.35675
       9 -> 16         0.21801

 Excited State  22:      Singlet-A     15.9192 eV   77.88 nm  f=0.0006  <S**2>=0.000
       5 -> 12         0.56223
       5 -> 13         0.24569
       6 -> 12         0.21565
       7 -> 13         0.21566

 Excited State  23:      Singlet-A     15.9192 eV   77.88 nm  f=0.0006  <S**2>=0.000
       5 -> 12        -0.24578
       5 -> 13         0.56237
       6 -> 13        -0.21539
       7 -> 12         0.21552

 Excited State  24:      Singlet-A     16.1007 eV   77.01 nm  f=0.0817  <S**2>=0.000
       6 -> 12        -0.15880
       7 -> 13        -0.15878
       8 -> 16        -0.17046
       9 -> 16         0.60845
       9 -> 17        -0.12999

 Excited State  25:      Singlet-A     16.1008 eV   77.01 nm  f=0.0816  <S**2>=0.000
       6 -> 13         0.15880
       7 -> 12        -0.15883
       8 -> 16         0.60843
       8 -> 17        -0.12999
       9 -> 16         0.17047

 Excited State  26:      Singlet-A     16.3688 eV   75.74 nm  f=0.0086  <S**2>=0.000
       5 -> 11         0.20260
       5 -> 16         0.11273
       6 -> 12        -0.14227
       6 -> 13         0.42164
       7 -> 12         0.42157
       7 -> 13         0.14225

 Excited State  27:      Singlet-A     17.7375 eV   69.90 nm  f=0.0115  <S**2>=0.000
       9 -> 16         0.14954
       9 -> 17         0.66959

 Excited State  28:      Singlet-A     17.7376 eV   69.90 nm  f=0.0115  <S**2>=0.000
       8 -> 16         0.14955
       8 -> 17         0.66958

 Excited State  29:      Singlet-A     18.0270 eV   68.78 nm  f=0.0000  <S**2>=0.000
       6 -> 14         0.43831
       6 -> 15        -0.23508
       7 -> 14        -0.23528
       7 -> 15        -0.43824

 Excited State  30:      Singlet-A     18.1229 eV   68.41 nm  f=0.1642  <S**2>=0.000
       5 -> 14         0.35437
       6 -> 15        -0.41350
       7 -> 14         0.41371

 Excited State  31:      Singlet-A     18.1230 eV   68.41 nm  f=0.1642  <S**2>=0.000
       5 -> 15        -0.35450
       6 -> 14         0.41352
       7 -> 15         0.41357

 Excited State  32:      Singlet-A     18.3448 eV   67.59 nm  f=0.0000  <S**2>=0.000
       6 -> 14         0.22924
       6 -> 15         0.42726
       7 -> 14         0.42712
       7 -> 15        -0.22922

 Excited State  33:      Singlet-A     18.4088 eV   67.35 nm  f=0.0094  <S**2>=0.000
       5 -> 14         0.48871
       5 -> 15         0.35557
       6 -> 14         0.15713
       6 -> 15         0.19588
       7 -> 14        -0.19560
       7 -> 15         0.15710

 Excited State  34:      Singlet-A     18.4088 eV   67.35 nm  f=0.0094  <S**2>=0.000
       5 -> 14        -0.35566
       5 -> 15         0.48870
       6 -> 14         0.19565
       6 -> 15        -0.15708
       7 -> 14         0.15691
       7 -> 15         0.19586

 Excited State  35:      Singlet-A     19.7994 eV   62.62 nm  f=0.0247  <S**2>=0.000
       6 -> 16        -0.23412
       7 -> 16         0.63228
       7 -> 17        -0.13577

 Excited State  36:      Singlet-A     19.7995 eV   62.62 nm  f=0.0247  <S**2>=0.000
       6 -> 16         0.63228
       6 -> 17        -0.13577
       7 -> 16         0.23412

 Excited State  37:      Singlet-A     20.2753 eV   61.15 nm  f=0.0108  <S**2>=0.000
       4 -> 10         0.59616
       4 -> 11        -0.33846
       5 -> 17        -0.14167

 Excited State  38:      Singlet-A     20.4956 eV   60.49 nm  f=0.0184  <S**2>=0.000
       4 -> 10         0.27070
       4 -> 11         0.51238
       5 -> 16         0.26673
       8 -> 19        -0.19806
       9 -> 18         0.19809

 Excited State  39:      Singlet-A     20.5300 eV   60.39 nm  f=0.0000  <S**2>=0.000
       8 -> 18         0.48109
       8 -> 19        -0.12031
       9 -> 18         0.12036
       9 -> 19         0.48103

 Excited State  40:      Singlet-A     20.9007 eV   59.32 nm  f=0.0180  <S**2>=0.000
       8 -> 19         0.41222
       8 -> 20         0.11736
       9 -> 18         0.41262
       9 -> 20         0.32480

 Excited State  41:      Singlet-A     20.9008 eV   59.32 nm  f=0.0180  <S**2>=0.000
       8 -> 18        -0.41233
       8 -> 20         0.32487
       9 -> 19         0.41243
       9 -> 20        -0.11739

 Excited State  42:      Singlet-A     20.9732 eV   59.12 nm  f=0.1628  <S**2>=0.000
       5 -> 16         0.47241
       8 -> 19         0.32203
       8 -> 22         0.15294
       9 -> 18        -0.32156
       9 -> 23         0.15295

 Excited State  43:      Singlet-A     21.2946 eV   58.22 nm  f=0.1009  <S**2>=0.000
       6 -> 17        -0.21322
       7 -> 17         0.39265
       8 -> 18         0.17711
       8 -> 20         0.27813
       9 -> 19        -0.17708
       9 -> 20        -0.32492
       9 -> 21        -0.10285

 Excited State  44:      Singlet-A     21.2947 eV   58.22 nm  f=0.1008  <S**2>=0.000
       6 -> 17         0.39264
       7 -> 17         0.21324
       8 -> 19         0.17707
       8 -> 20        -0.32493
       8 -> 21        -0.10286
       9 -> 18         0.17706
       9 -> 20        -0.27815

 Excited State  45:      Singlet-A     21.4848 eV   57.71 nm  f=0.0369  <S**2>=0.000
       4 -> 10        -0.15882
       4 -> 11        -0.31555
       5 -> 16         0.34250
       5 -> 17         0.27498
       6 -> 19        -0.10243
       7 -> 18         0.10243
       8 -> 19        -0.25960
       9 -> 18         0.25953

 Excited State  46:      Singlet-A     21.7976 eV   56.88 nm  f=0.0283  <S**2>=0.000
       4 -> 12        -0.13639
       7 -> 16         0.14403
       7 -> 17         0.50830
       8 -> 18        -0.10860
       8 -> 19        -0.10122
       9 -> 18        -0.10119
       9 -> 19         0.10861
       9 -> 20         0.35646

 Excited State  47:      Singlet-A     21.7977 eV   56.88 nm  f=0.0283  <S**2>=0.000
       4 -> 13        -0.13636
       6 -> 16         0.14403
       6 -> 17         0.50831
       8 -> 18         0.10125
       8 -> 19        -0.10859
       8 -> 20         0.35645
       9 -> 18        -0.10859
       9 -> 19        -0.10121

 Excited State  48:      Singlet-A     21.9828 eV   56.40 nm  f=0.0169  <S**2>=0.000
       4 -> 12         0.60810
       4 -> 13         0.27968
       9 -> 20         0.19021

 Excited State  49:      Singlet-A     21.9828 eV   56.40 nm  f=0.0169  <S**2>=0.000
       4 -> 12        -0.27968
       4 -> 13         0.60811
       8 -> 20         0.19019

 Excited State  50:      Singlet-A     22.1122 eV   56.07 nm  f=0.0019  <S**2>=0.000
       4 -> 10         0.16538
       5 -> 17         0.60174
       6 -> 19         0.13344
       7 -> 18        -0.13345
       8 -> 19         0.11471
       9 -> 18        -0.11470

 Excited State  51:      Singlet-A     23.2414 eV   53.35 nm  f=0.0359  <S**2>=0.000
       7 -> 21         0.11420
       8 -> 21         0.12374
       9 -> 20        -0.10625
       9 -> 21         0.64897

 Excited State  52:      Singlet-A     23.2414 eV   53.35 nm  f=0.0359  <S**2>=0.000
       6 -> 21         0.11419
       8 -> 20        -0.10623
       8 -> 21         0.64896
       9 -> 21        -0.12375

 Excited State  53:      Singlet-A     23.7416 eV   52.22 nm  f=0.0000  <S**2>=0.000
       8 -> 23        -0.48787
       9 -> 22         0.49328

 Excited State  54:      Singlet-A     23.7499 eV   52.20 nm  f=0.0013  <S**2>=0.000
       8 -> 22         0.45471
       8 -> 23        -0.14822
       9 -> 22        -0.14623
       9 -> 23        -0.45454

 Excited State  55:      Singlet-A     23.7499 eV   52.20 nm  f=0.0013  <S**2>=0.000
       8 -> 22         0.14703
       8 -> 23         0.45721
       9 -> 22         0.45202
       9 -> 23        -0.14742

 Excited State  56:      Singlet-A     24.2385 eV   51.15 nm  f=0.0000  <S**2>=0.000
       6 -> 18         0.49175
       7 -> 19         0.49169

 Excited State  57:      Singlet-A     24.3103 eV   51.00 nm  f=0.0347  <S**2>=0.000
       4 -> 14         0.69882

 Excited State  58:      Singlet-A     24.3104 eV   51.00 nm  f=0.0347  <S**2>=0.000
       4 -> 15         0.69882

 Excited State  59:      Singlet-A     24.5036 eV   50.60 nm  f=0.0003  <S**2>=0.000
       5 -> 18         0.59261
       6 -> 18         0.18568
       6 -> 19         0.16043
       7 -> 18         0.16060
       7 -> 19        -0.18566

 Excited State  60:      Singlet-A     24.5037 eV   50.60 nm  f=0.0003  <S**2>=0.000
       5 -> 19         0.59275
       6 -> 18         0.16039
       6 -> 19        -0.18550
       7 -> 18        -0.18564
       7 -> 19        -0.16035

 Excited State  61:      Singlet-A     24.7907 eV   50.01 nm  f=0.0471  <S**2>=0.000
       5 -> 18        -0.20394
       5 -> 19         0.18981
       6 -> 19         0.34183
       6 -> 20         0.22647
       7 -> 18         0.34183
       7 -> 20         0.26075
       9 -> 21        -0.11484

 Excited State  62:      Singlet-A     24.7907 eV   50.01 nm  f=0.0471  <S**2>=0.000
       5 -> 18         0.18983
       5 -> 19         0.20373
       6 -> 18        -0.34178
       6 -> 20         0.26079
       7 -> 19         0.34189
       7 -> 20        -0.22650
       8 -> 21        -0.11484

 Excited State  63:      Singlet-A     25.0736 eV   49.45 nm  f=0.1863  <S**2>=0.000
       4 -> 16        -0.14686
       5 -> 20         0.61618
       5 -> 21         0.11519
       6 -> 19         0.14502
       7 -> 18        -0.14505
       8 -> 22        -0.12022
       9 -> 23        -0.12023

 Excited State  64:      Singlet-A     25.3328 eV   48.94 nm  f=0.1649  <S**2>=0.000
       5 -> 18         0.20488
       6 -> 18        -0.17759
       6 -> 20        -0.16918
       7 -> 19         0.17761
       7 -> 20         0.57493

 Excited State  65:      Singlet-A     25.3328 eV   48.94 nm  f=0.1649  <S**2>=0.000
       5 -> 19        -0.20478
       6 -> 19        -0.17764
       6 -> 20         0.57493
       7 -> 18        -0.17754
       7 -> 20         0.16921

 Excited State  66:      Singlet-A     25.4638 eV   48.69 nm  f=0.0805  <S**2>=0.000
       4 -> 16        -0.10507
       4 -> 20        -0.10186
       5 -> 20        -0.13820
       5 -> 21        -0.27195
       6 -> 19         0.39606
       7 -> 18        -0.39602

 Excited State  67:      Singlet-A     26.0982 eV   47.51 nm  f=0.3083  <S**2>=0.000
       4 -> 16        -0.13849
       5 -> 16         0.14253
       5 -> 20        -0.28920
       5 -> 21         0.36460
       8 -> 22        -0.30328
       9 -> 23        -0.30329

 Excited State  68:      Singlet-A     26.5136 eV   46.76 nm  f=0.2096  <S**2>=0.000
       4 -> 16         0.57425
       4 -> 17        -0.20467
       6 -> 22         0.19807
       7 -> 23         0.19809

 Excited State  69:      Singlet-A     27.3690 eV   45.30 nm  f=0.0000  <S**2>=0.000
       6 -> 22         0.11660
       6 -> 23        -0.39415
       7 -> 22         0.39504
       7 -> 23         0.11630
       8 -> 25        -0.26616
       9 -> 24         0.26691

 Excited State  70:      Singlet-A     27.3938 eV   45.26 nm  f=0.0255  <S**2>=0.000
       5 -> 22         0.21658
       5 -> 23         0.14561
       6 -> 21         0.49230
       6 -> 22         0.17041
       6 -> 23         0.12093
       7 -> 21         0.15521
       7 -> 22         0.12006
       7 -> 23        -0.17062
       8 -> 25         0.15107
       9 -> 24         0.15047

 Excited State  71:      Singlet-A     27.3938 eV   45.26 nm  f=0.0254  <S**2>=0.000
       5 -> 22        -0.14558
       5 -> 23         0.21633
       6 -> 21        -0.15507
       6 -> 22         0.12023
       6 -> 23        -0.17043
       7 -> 21         0.49277
       7 -> 22        -0.17043
       7 -> 23        -0.12016
       8 -> 24         0.15060
       9 -> 25        -0.15057

 Excited State  72:      Singlet-A     27.4383 eV   45.19 nm  f=0.0193  <S**2>=0.000
       5 -> 23        -0.30042
       6 -> 22        -0.17782
       6 -> 23         0.14169
       7 -> 21         0.45775
       7 -> 22         0.14111
       7 -> 23         0.17751
       8 -> 24        -0.18661
       9 -> 25         0.18643

 Excited State  73:      Singlet-A     27.4383 eV   45.19 nm  f=0.0192  <S**2>=0.000
       5 -> 22        -0.30009
       6 -> 21         0.45830
       6 -> 22        -0.14125
       6 -> 23        -0.17789
       7 -> 22        -0.17725
       7 -> 23         0.14134
       8 -> 25        -0.18653
       9 -> 24        -0.18606

 Excited State  74:      Singlet-A     27.6095 eV   44.91 nm  f=0.0258  <S**2>=0.000
       4 -> 16         0.20853
       4 -> 17         0.64511
       5 -> 21         0.12026

 Excited State  75:      Singlet-A     27.8968 eV   44.44 nm  f=0.1401  <S**2>=0.000
       5 -> 23         0.55401
       6 -> 22        -0.15107
       7 -> 23         0.15114
       8 -> 24        -0.22506
       9 -> 25         0.22499

 Excited State  76:      Singlet-A     27.8968 eV   44.44 nm  f=0.1401  <S**2>=0.000
       5 -> 22         0.55404
       6 -> 23        -0.15107
       7 -> 22        -0.15090
       8 -> 25        -0.22507
       9 -> 24        -0.22510

 Excited State  77:      Singlet-A     28.0883 eV   44.14 nm  f=0.5639  <S**2>=0.000
       4 -> 16         0.15229
       4 -> 17        -0.12734
       5 -> 21         0.37303
       6 -> 19         0.12416
       6 -> 22        -0.17268
       6 -> 24        -0.10496
       7 -> 18        -0.12413
       7 -> 23        -0.17284
       7 -> 25        -0.10499
       8 -> 22         0.22499
       8 -> 24        -0.18565
       9 -> 23         0.22502
       9 -> 25        -0.18570

 Excited State  78:      Singlet-A     28.4059 eV   43.65 nm  f=0.0429  <S**2>=0.000
       6 -> 22         0.27221
       6 -> 23        -0.20263
       7 -> 22        -0.20286
       7 -> 23        -0.27225
       8 -> 24        -0.34891
       9 -> 25         0.34908

 Excited State  79:      Singlet-A     28.4059 eV   43.65 nm  f=0.0429  <S**2>=0.000
       6 -> 22        -0.20281
       6 -> 23        -0.27193
       7 -> 22        -0.27248
       7 -> 23         0.20267
       8 -> 25         0.34856
       9 -> 24         0.34941

 Excited State  80:      Singlet-A     28.4383 eV   43.60 nm  f=0.0000  <S**2>=0.000
       6 -> 23        -0.26614
       7 -> 22         0.26537
       8 -> 24        -0.12383
       8 -> 25         0.39327
       9 -> 24        -0.39244
       9 -> 25        -0.12367

 Excited State  81:      Singlet-A     28.9636 eV   42.81 nm  f=0.3650  <S**2>=0.000
       4 -> 16         0.13350
       4 -> 20        -0.13801
       5 -> 21         0.14208
       6 -> 22        -0.18739
       7 -> 23        -0.18737
       8 -> 24         0.39352
       8 -> 25         0.12396
       9 -> 24        -0.12395
       9 -> 25         0.39353

 Excited State  82:      Singlet-A     30.0432 eV   41.27 nm  f=0.0927  <S**2>=0.000
       3 -> 11        -0.18771
       4 -> 16        -0.13798
       4 -> 20        -0.12499
       5 -> 16        -0.10658
       5 -> 21         0.27040
       6 -> 22         0.31961
       7 -> 23         0.31962
       8 -> 22         0.14288
       8 -> 24         0.12064
       9 -> 23         0.14288
       9 -> 25         0.12064

 Excited State  83:      Singlet-A     30.6865 eV   40.40 nm  f=0.0095  <S**2>=0.000
       4 -> 18         0.70098

 Excited State  84:      Singlet-A     30.6866 eV   40.40 nm  f=0.0095  <S**2>=0.000
       4 -> 19         0.70097

 Excited State  85:      Singlet-A     31.7614 eV   39.04 nm  f=0.0031  <S**2>=0.000
       4 -> 20         0.62030
       8 -> 26        -0.15746
       9 -> 27         0.15747

 Excited State  86:      Singlet-A     31.8838 eV   38.89 nm  f=0.0076  <S**2>=0.000
       5 -> 24         0.39660
       5 -> 25         0.14878
       6 -> 24         0.10206
       6 -> 25         0.37426
       7 -> 24         0.37482
       7 -> 25        -0.10170

 Excited State  87:      Singlet-A     31.8838 eV   38.89 nm  f=0.0075  <S**2>=0.000
       5 -> 24        -0.14885
       5 -> 25         0.39668
       6 -> 24         0.37447
       6 -> 25        -0.10168
       7 -> 24        -0.10201
       7 -> 25        -0.37452

 Excited State  88:      Singlet-A     31.9875 eV   38.76 nm  f=0.0000  <S**2>=0.000

 The electronic state is 1-A.
 Alpha  occ. eigenvalues --  -24.78754 -10.35396  -1.29338  -0.79868  -0.57762
 Alpha  occ. eigenvalues --   -0.57335  -0.57335  -0.43303  -0.43303
 Alpha virt. eigenvalues --    0.13109   0.15487   0.19383   0.19383   0.29029
 Alpha virt. eigenvalues --    0.29029   0.38074   0.41258   0.52292   0.52293
 Alpha virt. eigenvalues --    0.54283   0.64040   0.67350   0.67350   0.82135

 Mulliken charges:
               1
     1  C   -0.071985
     2  F   -0.253362
     3  H    0.108449
     4  H    0.108450
     5  H    0.108448
 Sum of Mulliken charges =  -0.00000

 Dipole moment (field-independent basis, Debye):
    X=              1.8276    Y=             -0.0000    Z=              0.0000  Tot=              1.8276
 Quadrupole moment (field-independent basis, Debye-Ang):
   XX=            -12.4203   YY=            -11.7803   ZZ=            -11.7803
   XY=              0.0000   XZ=              0.0000   YZ=              0.0000

 Normal termination of Gaussian 16 at Sat Aug 14 06:20:06 2021.
