 Gaussian 16, Revision C.01,
 Gaussian 16:  EM64L-G16RevC.01  3-Jul-2019

 ----------------------------------------------------------------------
 #P TD(Nstates=10000) wB97XD/def2TZVP SCF(maxcycles=100) Int(Grid=ultra
 fine)
 ----------------------------------------------------------------------

 ---------------------
 xGDB7_00001_tier4.com
 ---------------------
 Symbolic Z-matrix:
 Charge =  0 Multiplicity = 1

                         Standard orientation:
 ---------------------------------------------------------------------
 Center     Atomic      Atomic             Coordinates (Angstroms)
 Number     Number       Type             X           Y           Z
 ---------------------------------------------------------------------
      1          6           0       -1.122844   -0.452320    0.000000
      2          6           0        0.000000    0.553997    0.000000
      3          9           0        1.225284   -0.098236    0.000000
      4          1           0       -2.083314    0.066805    0.000000
      5          1           0       -1.072796   -1.085651    0.886148
      6          1           0       -1.072796   -1.085651   -0.886148
      7          1           0       -0.030794    1.189278    0.888716
      8          1           0       -0.030794    1.189278   -0.888716
 ---------------------------------------------------------------------

 SCF Done:  E(RwB97XD) =  -179.084892066     A.U. after   13 cycles

 Excitation energies and oscillator strengths:

 Excited State   1:      Singlet-A"     9.7554 eV  127.09 nm  f=0.0149  <S**2>=0.000
      13 -> 14         0.64409
      13 -> 15        -0.24594
      13 -> 17        -0.10472
 This state for optimization and/or second-order correction.
 Total Energy, E(TD-HF/TD-DFT) =  -178.726389011
 Copying the excited state density for this state as the 1-particle RhoCI density.

 Excited State   2:      Singlet-A'    10.1142 eV  122.58 nm  f=0.0105  <S**2>=0.000
      12 -> 14         0.60701
      12 -> 15        -0.28109
      12 -> 17        -0.20836

 Excited State   3:      Singlet-A"    10.3170 eV  120.17 nm  f=0.0065  <S**2>=0.000
      13 -> 14         0.23468
      13 -> 15         0.41997
      13 -> 17         0.49299

 Excited State   4:      Singlet-A'    10.5633 eV  117.37 nm  f=0.0130  <S**2>=0.000
      12 -> 14         0.33659
      12 -> 15         0.39675
      12 -> 17         0.45928

 Excited State   5:      Singlet-A"    11.0873 eV  111.83 nm  f=0.2296  <S**2>=0.000
      10 -> 14        -0.18278
      12 -> 16         0.14025
      13 -> 15         0.45812
      13 -> 17        -0.45778

 Excited State   6:      Singlet-A'    11.3409 eV  109.32 nm  f=0.1802  <S**2>=0.000
      11 -> 14         0.42827
      12 -> 15        -0.33667
      12 -> 17         0.33494
      13 -> 16        -0.25293

 Excited State   7:      Singlet-A'    11.3689 eV  109.06 nm  f=0.1810  <S**2>=0.000
      11 -> 14         0.23921
      12 -> 15        -0.10298
      13 -> 16         0.63812

 Excited State   8:      Singlet-A'    11.4126 eV  108.64 nm  f=0.1470  <S**2>=0.000
      11 -> 14         0.48153
      12 -> 15         0.35388
      12 -> 17        -0.33824

 Excited State   9:      Singlet-A"    11.4680 eV  108.11 nm  f=0.0127  <S**2>=0.000
      10 -> 14         0.12875
      12 -> 16         0.67124

 Excited State  10:      Singlet-A"    11.6512 eV  106.41 nm  f=0.0091  <S**2>=0.000
      10 -> 14         0.50263
      13 -> 15         0.12579
      13 -> 18         0.44444

 Excited State  11:      Singlet-A"    11.8726 eV  104.43 nm  f=0.0308  <S**2>=0.000
      10 -> 14        -0.40631
      10 -> 18        -0.14986
      13 -> 14        -0.10978
      13 -> 15        -0.14103
      13 -> 18         0.51255

 Excited State  12:      Singlet-A'    11.9276 eV  103.95 nm  f=0.0427  <S**2>=0.000
       9 -> 18        -0.10032
      12 -> 18         0.67191

 Excited State  13:      Singlet-A"    12.2900 eV  100.88 nm  f=0.0013  <S**2>=0.000
      12 -> 19         0.68509

 Excited State  14:      Singlet-A'    12.3945 eV  100.03 nm  f=0.0036  <S**2>=0.000
      11 -> 18         0.11741
      13 -> 19         0.66131

 Excited State  15:      Singlet-A"    12.4779 eV   99.36 nm  f=0.0561  <S**2>=0.000
      10 -> 15         0.59056
      10 -> 17         0.29919
      12 -> 19        -0.10115
      13 -> 17        -0.10723

 Excited State  16:      Singlet-A'    12.5415 eV   98.86 nm  f=0.1559  <S**2>=0.000
      11 -> 14        -0.11284
      11 -> 15         0.65684
      11 -> 17         0.10367

 Excited State  17:      Singlet-A"    12.8755 eV   96.29 nm  f=0.0441  <S**2>=0.000
      10 -> 15        -0.11723
      10 -> 17         0.24775
      11 -> 16         0.58296
      11 -> 19        -0.19721
      13 -> 20         0.14733

 Excited State  18:      Singlet-A'    13.0075 eV   95.32 nm  f=0.0742  <S**2>=0.000
      10 -> 16         0.10282
      11 -> 15        -0.12420
      11 -> 17         0.59844
      11 -> 18         0.16390
      11 -> 20        -0.10961
      12 -> 20        -0.20049
      13 -> 19        -0.10065

 Excited State  19:      Singlet-A"    13.0457 eV   95.04 nm  f=0.0202  <S**2>=0.000
      10 -> 15        -0.21053
      10 -> 17         0.51400
      11 -> 16        -0.33590
      13 -> 20         0.15854
      13 -> 21        -0.14579

 Excited State  20:      Singlet-A'    13.1105 eV   94.57 nm  f=0.0226  <S**2>=0.000
       9 -> 14         0.17981
      10 -> 16         0.40063
      11 -> 17        -0.20088
      11 -> 18         0.47254
      13 -> 19        -0.10364

 Excited State  21:      Singlet-A"    13.1844 eV   94.04 nm  f=0.1163  <S**2>=0.000
      10 -> 15         0.13669
      10 -> 17        -0.13733
      13 -> 20         0.62765
      13 -> 21         0.16393

 Excited State  22:      Singlet-A'    13.2909 eV   93.29 nm  f=0.0666  <S**2>=0.000
       9 -> 14         0.53739
       9 -> 15        -0.14069
       9 -> 17        -0.11303
      11 -> 18        -0.12959
      12 -> 20        -0.32878
      12 -> 21        -0.12643

 Excited State  23:      Singlet-A'    13.4115 eV   92.45 nm  f=0.2309  <S**2>=0.000
      10 -> 16         0.51512
      11 -> 18        -0.38666
      12 -> 21        -0.17827

 Excited State  24:      Singlet-A"    13.4258 eV   92.35 nm  f=0.0000  <S**2>=0.000
       7 -> 14         0.10453
      10 -> 15        -0.10038
      10 -> 18         0.61355
      11 -> 19        -0.20164
      13 -> 18         0.14229

 Excited State  25:      Singlet-A'    13.5497 eV   91.50 nm  f=0.0973  <S**2>=0.000
       9 -> 14         0.27644
       9 -> 15        -0.17933
      10 -> 16         0.10650
      10 -> 19         0.10918
      11 -> 17         0.18446
      11 -> 18        -0.14050
      12 -> 20         0.52264

 Excited State  26:      Singlet-A"    13.7491 eV   90.18 nm  f=0.0346  <S**2>=0.000
       7 -> 14         0.11085
      10 -> 18         0.19603
      11 -> 16         0.14030
      11 -> 19         0.61901

 Excited State  27:      Singlet-A'    13.8477 eV   89.53 nm  f=0.0012  <S**2>=0.000
       9 -> 14         0.19489
       9 -> 15         0.35683
       9 -> 17         0.31729
      10 -> 19         0.40611
      12 -> 21         0.14089

 Excited State  28:      Singlet-A"    13.9739 eV   88.73 nm  f=0.0059  <S**2>=0.000
      10 -> 15        -0.15095
      10 -> 17         0.14309
      10 -> 20         0.12228
      11 -> 19        -0.10358
      13 -> 21         0.61871

 Excited State  29:      Singlet-A'    14.1558 eV   87.59 nm  f=0.0420  <S**2>=0.000
       8 -> 17         0.12390
       9 -> 15         0.20715
      10 -> 19        -0.36514
      11 -> 18        -0.10423
      11 -> 20        -0.18905
      12 -> 21         0.44895

 Excited State  30:      Singlet-A'    14.2093 eV   87.26 nm  f=0.1155  <S**2>=0.000
       8 -> 14        -0.11893
       9 -> 14        -0.10722
       9 -> 15        -0.13439
       9 -> 17        -0.31331
      10 -> 16         0.11436
      10 -> 19         0.30592
      11 -> 20         0.24962
      12 -> 20        -0.11360
      12 -> 21         0.35176

 Excited State  31:      Singlet-A"    14.5026 eV   85.49 nm  f=0.1558  <S**2>=0.000
       7 -> 14         0.57662
       7 -> 15        -0.20164
       9 -> 16         0.24393
      10 -> 20         0.10262

 Excited State  32:      Singlet-A'    14.6043 eV   84.90 nm  f=0.1225  <S**2>=0.000
       8 -> 14         0.56841
       8 -> 15        -0.12882
       9 -> 17        -0.14737
      10 -> 19         0.12108
      11 -> 20        -0.20702
      12 -> 23        -0.10679
      13 -> 22         0.11127

 Excited State  33:      Singlet-A'    14.6303 eV   84.74 nm  f=0.0349  <S**2>=0.000
       9 -> 15         0.47346
       9 -> 17        -0.37488
      11 -> 20         0.20920
      12 -> 20         0.11701
      12 -> 21        -0.22676

 Excited State  34:      Singlet-A"    14.6342 eV   84.72 nm  f=0.0854  <S**2>=0.000
       7 -> 14        -0.21858
       9 -> 16         0.59921
      10 -> 20         0.10023
      12 -> 22        -0.23075

 Excited State  35:      Singlet-A"    14.7351 eV   84.14 nm  f=0.0000  <S**2>=0.000
       9 -> 16        -0.14909
      10 -> 20         0.64015
      13 -> 21        -0.10388

 Excited State  36:      Singlet-A'    14.8760 eV   83.35 nm  f=0.1103  <S**2>=0.000
       8 -> 14         0.30612
       9 -> 17         0.21131
      10 -> 19        -0.16692
      11 -> 17         0.12647
      11 -> 20         0.50707
      12 -> 21         0.12704

 Excited State  37:      Singlet-A"    15.0342 eV   82.47 nm  f=0.0006  <S**2>=0.000
       7 -> 14         0.23154
       7 -> 15         0.43455
       7 -> 17         0.44810

 Excited State  38:      Singlet-A"    15.1011 eV   82.10 nm  f=0.0006  <S**2>=0.000
       9 -> 16         0.19352
       9 -> 19        -0.18047
      12 -> 22         0.60825
      12 -> 24         0.12028

 Excited State  39:      Singlet-A'    15.1433 eV   81.87 nm  f=0.0350  <S**2>=0.000
       9 -> 18        -0.43986
      11 -> 21         0.10294
      13 -> 22         0.48886

 Excited State  40:      Singlet-A'    15.2132 eV   81.50 nm  f=0.1588  <S**2>=0.000
       7 -> 16         0.12443
       8 -> 14        -0.12840
       8 -> 15        -0.30736
       8 -> 17        -0.29029
       9 -> 18         0.36223
      11 -> 21         0.12021
      13 -> 22         0.27696
      13 -> 24        -0.13001

 Excited State  41:      Singlet-A'    15.2758 eV   81.16 nm  f=0.0445  <S**2>=0.000
       7 -> 16        -0.16454
       8 -> 15         0.27181
       8 -> 17         0.26337
       9 -> 18         0.32874
      10 -> 19         0.10657
      12 -> 23        -0.17196
      13 -> 22         0.31659
      13 -> 24         0.17347

 Excited State  42:      Singlet-A"    15.4530 eV   80.23 nm  f=0.0303  <S**2>=0.000
       7 -> 15        -0.16488
       7 -> 17         0.19300
      10 -> 21        -0.25420
      11 -> 22         0.13800
      13 -> 23         0.55314

 Excited State  43:      Singlet-A"    15.5005 eV   79.99 nm  f=0.0005  <S**2>=0.000
       9 -> 19         0.64007
      12 -> 22         0.20184
      12 -> 24        -0.16570

 Excited State  44:      Singlet-A'    15.6162 eV   79.39 nm  f=0.0430  <S**2>=0.000
       7 -> 16         0.14325
       8 -> 15        -0.18457
       8 -> 17         0.32847
      11 -> 21         0.47898
      13 -> 22        -0.15000
      13 -> 24         0.19342

 Excited State  45:      Singlet-A"    15.6434 eV   79.26 nm  f=0.0073  <S**2>=0.000
       7 -> 15        -0.24004
       7 -> 17         0.33492
       8 -> 16        -0.27434
      10 -> 21        -0.30389
      11 -> 22        -0.11696
      13 -> 23        -0.22428
      13 -> 25        -0.22320

 Excited State  46:      Singlet-A"    15.7638 eV   78.65 nm  f=0.0721  <S**2>=0.000
       8 -> 16         0.52165
       8 -> 19         0.10033
      10 -> 21        -0.18604
      11 -> 22         0.23078
      12 -> 24        -0.14901
      13 -> 23        -0.18072
      13 -> 25        -0.20283

 Excited State  47:      Singlet-A'    15.8026 eV   78.46 nm  f=0.0640  <S**2>=0.000
       7 -> 16        -0.10649
       8 -> 15         0.15609
       9 -> 20        -0.12679
      12 -> 23         0.59104
      13 -> 24         0.18097

 Excited State  48:      Singlet-A'    15.9933 eV   77.52 nm  f=0.0170  <S**2>=0.000
       7 -> 16         0.16778
       8 -> 15         0.42876
       8 -> 17        -0.15065
       9 -> 20         0.14399
      11 -> 21         0.31477
      11 -> 23         0.10459
      13 -> 24        -0.29233

 Excited State  49:      Singlet-A"    16.0900 eV   77.06 nm  f=0.0004  <S**2>=0.000
       7 -> 15        -0.30933
       7 -> 17         0.25277
       8 -> 16         0.11046
       9 -> 19        -0.10448
      10 -> 21         0.42139
      11 -> 22        -0.10286
      12 -> 24        -0.30655

 Excited State  50:      Singlet-A"    16.1094 eV   76.96 nm  f=0.0126  <S**2>=0.000
       7 -> 15        -0.11639
       7 -> 17         0.16177
       8 -> 16         0.22572
       9 -> 19         0.16546
      10 -> 21         0.16412
      11 -> 22        -0.15989
      12 -> 24         0.53600

 Excited State  51:      Singlet-A'    16.1476 eV   76.78 nm  f=0.0993  <S**2>=0.000
       7 -> 16         0.38694
       8 -> 15         0.16504
       8 -> 17        -0.21964
      12 -> 25        -0.22280
      13 -> 24         0.41185

 Excited State  52:      Singlet-A'    16.2221 eV   76.43 nm  f=0.0589  <S**2>=0.000
       7 -> 16         0.36202
       8 -> 17         0.26939
       8 -> 18        -0.28216
       9 -> 20         0.20257
      11 -> 21        -0.29858
      12 -> 23         0.11726

 Excited State  53:      Singlet-A"    16.3267 eV   75.94 nm  f=0.0090  <S**2>=0.000
       7 -> 18        -0.24084
       8 -> 16         0.20880
      10 -> 21        -0.22513
      11 -> 22        -0.36532
      13 -> 25         0.40542

 Excited State  54:      Singlet-A"    16.4121 eV   75.54 nm  f=0.0209  <S**2>=0.000
       7 -> 15        -0.13791
       7 -> 17         0.10100
       7 -> 18         0.31292
      10 -> 18         0.10095
      11 -> 22         0.30383
      13 -> 23        -0.20908
      13 -> 25         0.42339

 Excited State  55:      Singlet-A'    16.4335 eV   75.45 nm  f=0.1726  <S**2>=0.000
       8 -> 17        -0.10578
       9 -> 20         0.28592
       9 -> 21         0.11548
      10 -> 22         0.23748
      12 -> 25         0.45181
      13 -> 24         0.23109

 Excited State  56:      Singlet-A"    16.5681 eV   74.83 nm  f=0.1218  <S**2>=0.000
       7 -> 18         0.52960
       8 -> 19         0.12799
      10 -> 21        -0.12300
      10 -> 23         0.15531
      11 -> 22        -0.32149
      12 -> 24        -0.12805

 Excited State  57:      Singlet-A'    16.6433 eV   74.50 nm  f=0.0582  <S**2>=0.000
       7 -> 19        -0.12435
       8 -> 18         0.36698
       9 -> 20         0.33018
      10 -> 22         0.25338
      10 -> 24         0.10533
      11 -> 23         0.12553
      12 -> 23         0.13535
      12 -> 25        -0.28301

 Excited State  58:      Singlet-A'    16.7978 eV   73.81 nm  f=0.0372  <S**2>=0.000
       7 -> 16        -0.23957
       7 -> 19         0.30364
       8 -> 18        -0.29535
       9 -> 20         0.32184
       9 -> 21         0.15633
      12 -> 25        -0.26758
      13 -> 24         0.11698

 Excited State  59:      Singlet-A"    16.9371 eV   73.20 nm  f=0.0309  <S**2>=0.000
       8 -> 16        -0.11279
       8 -> 19         0.65012
      10 -> 23        -0.17966

 Excited State  60:      Singlet-A'    16.9379 eV   73.20 nm  f=0.1267  <S**2>=0.000
       7 -> 19         0.43029
       8 -> 18         0.35580
       9 -> 21        -0.15879
      10 -> 22        -0.32043

 Excited State  61:      Singlet-A'    17.0682 eV   72.64 nm  f=0.0331  <S**2>=0.000
       7 -> 19         0.39434
       9 -> 20        -0.24270
      10 -> 22         0.44758

 Excited State  62:      Singlet-A'    17.1226 eV   72.41 nm  f=0.1247  <S**2>=0.000
       7 -> 19         0.11106
       9 -> 21         0.17778
      11 -> 23         0.62263

 Excited State  63:      Singlet-A"    17.3391 eV   71.51 nm  f=0.2594  <S**2>=0.000
       7 -> 20        -0.11226
       8 -> 19         0.15855
      10 -> 23         0.61149
      11 -> 22         0.12922

 Excited State  64:      Singlet-A'    17.5739 eV   70.55 nm  f=0.0228  <S**2>=0.000
       7 -> 16         0.10031
       8 -> 20         0.25073
       9 -> 21         0.56118
      10 -> 22        -0.12639
      10 -> 24        -0.10461
      11 -> 23        -0.14518

 Excited State  65:      Singlet-A"    17.7422 eV   69.88 nm  f=0.0012  <S**2>=0.000
       7 -> 20         0.60294
       7 -> 21         0.12966
      10 -> 25         0.15454
      11 -> 24         0.23832

 Excited State  66:      Singlet-A"    17.8489 eV   69.46 nm  f=0.0013  <S**2>=0.000
       7 -> 20        -0.24172
      11 -> 24         0.64443

 Excited State  67:      Singlet-A'    17.9585 eV   69.04 nm  f=0.0672  <S**2>=0.000
       8 -> 18        -0.12767
       8 -> 20         0.57697
       8 -> 21         0.14022
       9 -> 21        -0.21562
      10 -> 24        -0.11430

 Excited State  68:      Singlet-A'    17.9942 eV   68.90 nm  f=0.1852  <S**2>=0.000
       8 -> 20         0.16306
      10 -> 24         0.63138
      11 -> 25         0.11498

 Excited State  69:      Singlet-A"    18.1471 eV   68.32 nm  f=0.0136  <S**2>=0.000
      10 -> 25         0.16838
      13 -> 26         0.65474
      13 -> 27        -0.10568

 Excited State  70:      Singlet-A"    18.3742 eV   67.48 nm  f=0.0019  <S**2>=0.000
       7 -> 21        -0.19391
       9 -> 22         0.62604
      10 -> 25        -0.14622

 Excited State  71:      Singlet-A'    18.4624 eV   67.15 nm  f=0.0516  <S**2>=0.000
       6 -> 14         0.52211
      11 -> 25         0.12925
      12 -> 26        -0.38463

 Excited State  72:      Singlet-A"    18.4838 eV   67.08 nm  f=0.0168  <S**2>=0.000
       7 -> 20        -0.15811
       7 -> 21         0.43475
       9 -> 22         0.24904
      10 -> 25         0.38032
      11 -> 24        -0.10357
      13 -> 28         0.11425

 Excited State  73:      Singlet-A'    18.5130 eV   66.97 nm  f=0.0280  <S**2>=0.000
       6 -> 14         0.38107
       6 -> 15        -0.11202
       8 -> 21         0.32623
       9 -> 25         0.15446
      11 -> 25        -0.21058
      12 -> 26         0.33838

 Excited State  74:      Singlet-A'    18.6760 eV   66.39 nm  f=0.0016  <S**2>=0.000
       6 -> 14        -0.12289
       8 -> 20        -0.12430
       8 -> 21         0.55864
      11 -> 25         0.11466
      12 -> 26        -0.26123

 Excited State  75:      Singlet-A"    18.7911 eV   65.98 nm  f=0.0466  <S**2>=0.000
       7 -> 21        -0.44030
      10 -> 25         0.47492
      13 -> 26        -0.15048

 Excited State  76:      Singlet-A'    18.8630 eV   65.73 nm  f=0.0201  <S**2>=0.000
       6 -> 15         0.11793
       6 -> 17         0.14307
       9 -> 23         0.48646
      11 -> 25        -0.33776
      12 -> 26        -0.25888

 Excited State  77:      Singlet-A'    19.0469 eV   65.09 nm  f=0.0561  <S**2>=0.000
       6 -> 15         0.14993
       6 -> 17         0.15769
       9 -> 23         0.35983
      10 -> 24        -0.11048
      11 -> 25         0.45127
      12 -> 26         0.18267
      12 -> 28         0.11687

 Excited State  78:      Singlet-A"    19.1296 eV   64.81 nm  f=0.0575  <S**2>=0.000
       6 -> 16         0.15989
       9 -> 24         0.65778

 Excited State  79:      Singlet-A'    19.1541 eV   64.73 nm  f=0.0002  <S**2>=0.000
       6 -> 15         0.52338
       6 -> 17         0.28120
       9 -> 23        -0.23861
      11 -> 25        -0.12950
      12 -> 28         0.11647

 Excited State  80:      Singlet-A"    19.3553 eV   64.06 nm  f=0.0028  <S**2>=0.000
       6 -> 16         0.10468
       7 -> 21        -0.14298
       9 -> 24        -0.16292
      10 -> 27        -0.10490
      13 -> 26         0.10646
      13 -> 27         0.31819
      13 -> 28         0.53436

 Excited State  81:      Singlet-A"    19.5835 eV   63.31 nm  f=0.0046  <S**2>=0.000
       6 -> 16         0.19808
       7 -> 23         0.10832
       8 -> 22        -0.18508
      10 -> 27        -0.11035
      13 -> 27         0.47533
      13 -> 28        -0.36954

 Excited State  82:      Singlet-A'    19.5880 eV   63.30 nm  f=0.0312  <S**2>=0.000
       6 -> 15        -0.13212
       6 -> 17         0.15913
       7 -> 22         0.60380
       7 -> 24         0.10181
       8 -> 23        -0.10407
       9 -> 25         0.11519
      13 -> 29         0.18064

 Excited State  83:      Singlet-A'    19.7176 eV   62.88 nm  f=0.0026  <S**2>=0.000
       6 -> 17        -0.17536
       7 -> 22         0.15008
       9 -> 25        -0.32737
      11 -> 25        -0.10051
      12 -> 26         0.13112
      12 -> 27         0.48482
      12 -> 28        -0.15771

 Excited State  84:      Singlet-A"    19.7757 eV   62.70 nm  f=0.0000  <S**2>=0.000
       6 -> 16         0.46555
       8 -> 22        -0.37896
      10 -> 27         0.10031
      13 -> 27        -0.29137

 Excited State  85:      Singlet-A"    19.7826 eV   62.67 nm  f=0.0011  <S**2>=0.000
       6 -> 16         0.41517
       8 -> 22         0.53595

 Excited State  86:      Singlet-A'    19.8455 eV   62.47 nm  f=0.0535  <S**2>=0.000
       6 -> 15        -0.28126
       6 -> 17         0.48157
       7 -> 22        -0.21412
       8 -> 23        -0.11608
       8 -> 25        -0.11738
      12 -> 27         0.14525
      12 -> 28        -0.15644

 Excited State  87:      Singlet-A'    19.9593 eV   62.12 nm  f=0.0070  <S**2>=0.000
       6 -> 18        -0.21369
       8 -> 23         0.22883
       8 -> 25         0.16062
       9 -> 25         0.40410
      12 -> 27         0.38172

 Excited State  88:      Singlet-A'    20.0293 eV   61.90 nm  f=0.1348  <S**2>=0.000
       6 -> 14        -0.10339
       6 -> 15        -0.10918
       7 -> 24        -0.31403
       8 -> 23        -0.24878
      11 -> 26         0.20264
      12 -> 27         0.19809
      12 -> 28         0.41878

 The electronic state is 1-A'.
 Alpha  occ. eigenvalues --  -24.78199 -10.35611 -10.28195  -1.28723  -0.86564
 Alpha  occ. eigenvalues --   -0.72623  -0.58705  -0.58600  -0.54082  -0.48464
 Alpha  occ. eigenvalues --   -0.47950  -0.42432  -0.41624
 Alpha virt. eigenvalues --    0.12047   0.15456   0.17427   0.17890   0.18602
 Alpha virt. eigenvalues --    0.20624   0.24775   0.27629   0.30845   0.33733
 Alpha virt. eigenvalues --    0.35865   0.39037   0.44485   0.47440   0.49006

 Mulliken charges:
               1
     1  C   -0.328083
     2  C    0.058363
     3  F   -0.255770
     4  H    0.108542
     5  H    0.119605
     6  H    0.119605
     7  H    0.088869
     8  H    0.088869
 Sum of Mulliken charges =   0.00000

 Dipole moment (field-independent basis, Debye):
    X=             -1.7708    Y=              0.7063    Z=             -0.0000  Tot=              1.9064
 Quadrupole moment (field-independent basis, Debye-Ang):
   XX=            -20.6859   YY=            -18.1232   ZZ=            -18.0885
   XY=              0.2415   XZ=              0.0000   YZ=             -0.0000

 Normal termination of Gaussian 16 at Sat Aug 14 06:20:19 2021.
