 Gaussian 16, Revision C.01,
 Gaussian 16:  EM64L-G16RevC.01  3-Jul-2019

 ----------------------------------------------------------------------
 #P TD(Nstates=10000) wB97XD/def2TZVP SCF(maxcycles=100) Int(Grid=ultra
 fine)
 ----------------------------------------------------------------------

 ---------------------
 xGDB7_00001_tier4.com
 ---------------------
 Symbolic Z-matrix:
 Charge =  0 Multiplicity = 1

                         Standard orientation:
 ---------------------------------------------------------------------
 Center     Atomic      Atomic             Coordinates (Angstroms)
 Number     Number       Type             X           Y           Z
 ---------------------------------------------------------------------
      1          6           0        0.000000    1.163894   -0.193136
      2          8           0       -0.000000   -0.000000    0.585449
      3          6           0       -0.000000   -1.163894   -0.193136
      4          1           0        0.000000    2.015478    0.485827
      5          1           0       -0.890390    1.219204   -0.834404
      6          1           0        0.890390    1.219204   -0.834404
      7          1           0       -0.000000   -2.015478    0.485827
      8          1           0        0.890390   -1.219204   -0.834404
      9          1           0       -0.890390   -1.219204   -0.834404
 ---------------------------------------------------------------------

 SCF Done:  E(RwB97XD) =  -155.038310799     A.U. after   13 cycles

 Excitation energies and oscillator strengths:

 Excited State   1:      Singlet-B1     7.6604 eV  161.85 nm  f=0.0481  <S**2>=0.000
      13 -> 14         0.66833
      13 -> 16         0.22184
 This state for optimization and/or second-order correction.
 Total Energy, E(TD-HF/TD-DFT) =  -154.756796224
 Copying the excited state density for this state as the 1-particle RhoCI density.

 Excited State   2:      Singlet-B1     8.7562 eV  141.60 nm  f=0.0705  <S**2>=0.000
      13 -> 14        -0.21940
      13 -> 16         0.66265

 Excited State   3:      Singlet-A2     9.1584 eV  135.38 nm  f=0.0000  <S**2>=0.000
      13 -> 15         0.69346

 Excited State   4:      Singlet-A1     9.4763 eV  130.84 nm  f=0.0184  <S**2>=0.000
      12 -> 14         0.65672
      12 -> 16         0.23846

 Excited State   5:      Singlet-B1     9.5589 eV  129.71 nm  f=0.0209  <S**2>=0.000
      13 -> 17         0.69814

 Excited State   6:      Singlet-A1     9.8409 eV  125.99 nm  f=0.0937  <S**2>=0.000
      13 -> 18         0.69157

 Excited State   7:      Singlet-A2    10.2403 eV  121.08 nm  f=0.0000  <S**2>=0.000
      13 -> 19         0.67249
      13 -> 21         0.15077

 Excited State   8:      Singlet-A1    10.5321 eV  117.72 nm  f=0.1599  <S**2>=0.000
      11 -> 15         0.11261
      12 -> 14        -0.23449
      12 -> 16         0.64117

 Excited State   9:      Singlet-B2    10.6436 eV  116.49 nm  f=0.0006  <S**2>=0.000
      11 -> 14        -0.43536
      12 -> 15         0.47711
      13 -> 20        -0.25402

 Excited State  10:      Singlet-B2    10.7946 eV  114.86 nm  f=0.1177  <S**2>=0.000
      11 -> 14        -0.14937
      12 -> 15         0.21560
      13 -> 20         0.64798

 Excited State  11:      Singlet-A2    11.1531 eV  111.17 nm  f=0.0000  <S**2>=0.000
      10 -> 14         0.50121
      10 -> 16         0.15145
      13 -> 19        -0.14382
      13 -> 21         0.42961

 Excited State  12:      Singlet-B2    11.1601 eV  111.10 nm  f=0.0212  <S**2>=0.000
      11 -> 14         0.46134
      11 -> 16         0.29647
      12 -> 15         0.42197

 Excited State  13:      Singlet-B1    11.3595 eV  109.15 nm  f=0.1005  <S**2>=0.000
      12 -> 18         0.69144
      13 -> 22        -0.10206

 Excited State  14:      Singlet-A1    11.4001 eV  108.76 nm  f=0.0001  <S**2>=0.000
      12 -> 17         0.69124

 Excited State  15:      Singlet-A2    11.5441 eV  107.40 nm  f=0.0000  <S**2>=0.000
      10 -> 14        -0.45596
      13 -> 21         0.51318

 Excited State  16:      Singlet-B1    11.7118 eV  105.86 nm  f=0.0001  <S**2>=0.000
      12 -> 18         0.10200
      13 -> 22         0.69169

 Excited State  17:      Singlet-B2    11.8827 eV  104.34 nm  f=0.0501  <S**2>=0.000
      11 -> 14        -0.19413
      11 -> 16         0.31436
      11 -> 17        -0.12020
      12 -> 15        -0.11120
      12 -> 19         0.55219
      12 -> 21         0.13748

 Excited State  18:      Singlet-B2    12.2142 eV  101.51 nm  f=0.5004  <S**2>=0.000
      11 -> 14        -0.15943
      11 -> 16         0.51339
      11 -> 17         0.13537
      12 -> 15        -0.14697
      12 -> 19        -0.37838

 Excited State  19:      Singlet-A2    12.2903 eV  100.88 nm  f=0.0000  <S**2>=0.000
      10 -> 16        -0.22594
      11 -> 18        -0.31498
      12 -> 20         0.57228

 Excited State  20:      Singlet-A1    12.3123 eV  100.70 nm  f=0.0182  <S**2>=0.000
      11 -> 15         0.37723
      13 -> 23         0.57586

 Excited State  21:      Singlet-A1    12.4014 eV   99.98 nm  f=0.0382  <S**2>=0.000
       8 -> 14         0.17829
      11 -> 15         0.53449
      13 -> 23        -0.37636

 Excited State  22:      Singlet-A2    12.5703 eV   98.63 nm  f=0.0000  <S**2>=0.000
      10 -> 14        -0.11443
      10 -> 16         0.61663
      10 -> 17        -0.15356
      11 -> 18        -0.13703
      12 -> 20         0.18186

 Excited State  23:      Singlet-B1    12.7679 eV   97.11 nm  f=0.2616  <S**2>=0.000
       9 -> 14         0.22693
      10 -> 15         0.64857

 Excited State  24:      Singlet-B2    12.7994 eV   96.87 nm  f=0.0495  <S**2>=0.000
      11 -> 17         0.36944
      12 -> 21         0.19923
      13 -> 24         0.53628

 Excited State  25:      Singlet-A2    13.0185 eV   95.24 nm  f=0.0000  <S**2>=0.000
      11 -> 18         0.60221
      12 -> 20         0.34727

 Excited State  26:      Singlet-B2    13.0558 eV   94.96 nm  f=0.1165  <S**2>=0.000
      10 -> 18        -0.18798
      11 -> 16         0.11564
      11 -> 17        -0.43441
      12 -> 21        -0.20162
      13 -> 24         0.44490

 Excited State  27:      Singlet-B2    13.3320 eV   93.00 nm  f=0.1330  <S**2>=0.000
      10 -> 18         0.25293
      11 -> 17        -0.32224
      12 -> 19        -0.15434
      12 -> 21         0.52284

 Excited State  28:      Singlet-A2    13.4133 eV   92.43 nm  f=0.0000  <S**2>=0.000
       9 -> 19         0.12466
      10 -> 16         0.12552
      10 -> 17         0.65671

 Excited State  29:      Singlet-B2    13.5435 eV   91.55 nm  f=0.0003  <S**2>=0.000
       7 -> 14         0.14711
      10 -> 18         0.57336
      12 -> 21        -0.31705

 Excited State  30:      Singlet-A1    13.5511 eV   91.49 nm  f=0.0043  <S**2>=0.000
       8 -> 14        -0.16111
      10 -> 20        -0.16071
      11 -> 19        -0.19411
      12 -> 22         0.62083

 Excited State  31:      Singlet-B1    13.6319 eV   90.95 nm  f=0.0609  <S**2>=0.000
       9 -> 14         0.51779
       9 -> 16         0.26126
      10 -> 15        -0.10502
      10 -> 19        -0.30733
      10 -> 21        -0.11986
      12 -> 23        -0.13689

 Excited State  32:      Singlet-A1    13.7193 eV   90.37 nm  f=0.1725  <S**2>=0.000
       8 -> 14         0.48847
       8 -> 16         0.24642
      11 -> 15        -0.12345
      11 -> 19        -0.32709
      11 -> 21        -0.22773

 Excited State  33:      Singlet-B1    13.8853 eV   89.29 nm  f=0.0051  <S**2>=0.000
       8 -> 18         0.17230
       9 -> 17         0.15259
      10 -> 19         0.30747
      11 -> 20         0.57120

 Excited State  34:      Singlet-A1    13.9385 eV   88.95 nm  f=0.1216  <S**2>=0.000
       8 -> 14         0.23340
       8 -> 16         0.10800
       8 -> 17         0.14724
      10 -> 20         0.10269
      11 -> 19         0.52979
      12 -> 22         0.28639

 Excited State  35:      Singlet-B1    13.9630 eV   88.79 nm  f=0.0256  <S**2>=0.000
       9 -> 17        -0.12835
      10 -> 19        -0.28076
      11 -> 20         0.25982
      12 -> 23         0.54876

 Excited State  36:      Singlet-B2    14.0710 eV   88.11 nm  f=0.0214  <S**2>=0.000
       7 -> 14         0.66949
      10 -> 18        -0.12997

 Excited State  37:      Singlet-B1    14.1268 eV   87.76 nm  f=0.1081  <S**2>=0.000
       9 -> 14         0.34862
       9 -> 17         0.15164
      10 -> 15        -0.14323
      10 -> 19         0.35417
      11 -> 20        -0.20478
      12 -> 23         0.38614

 Excited State  38:      Singlet-A2    14.3753 eV   86.25 nm  f=0.0000  <S**2>=0.000
       9 -> 15        -0.15529
      13 -> 25         0.48616
      13 -> 26        -0.44469

 Excited State  39:      Singlet-A2    14.5195 eV   85.39 nm  f=0.0000  <S**2>=0.000
      10 -> 22         0.12774
      11 -> 23        -0.19867
      12 -> 24         0.64293
      13 -> 25        -0.11004

 Excited State  40:      Singlet-A1    14.6538 eV   84.61 nm  f=0.0194  <S**2>=0.000
       8 -> 14         0.36414
       8 -> 16        -0.30430
      10 -> 20        -0.23216
      11 -> 15        -0.15092
      11 -> 21         0.41395

 Excited State  41:      Singlet-B2    14.8077 eV   83.73 nm  f=0.3000  <S**2>=0.000
       7 -> 16         0.59271
      11 -> 22        -0.32281

 Excited State  42:      Singlet-B1    14.8313 eV   83.60 nm  f=0.0235  <S**2>=0.000
       9 -> 14        -0.20266
       9 -> 16         0.54489
      10 -> 15         0.14731
      10 -> 19         0.15542
      10 -> 21        -0.23275
      13 -> 27        -0.19370

 Excited State  43:      Singlet-A1    14.8642 eV   83.41 nm  f=0.1286  <S**2>=0.000
       7 -> 15         0.22369
       8 -> 16        -0.13932
       9 -> 18         0.12545
      10 -> 20         0.57496
      11 -> 19        -0.12023
      11 -> 21         0.16781
      12 -> 22         0.12120

 Excited State  44:      Singlet-A2    15.1581 eV   81.79 nm  f=0.0000  <S**2>=0.000
       9 -> 15        -0.31806
      10 -> 22         0.46016
      12 -> 24        -0.17262
      13 -> 25        -0.27990
      13 -> 26        -0.22994

 Excited State  45:      Singlet-B2    15.2501 eV   81.30 nm  f=0.0521  <S**2>=0.000
       7 -> 16         0.30983
       8 -> 15        -0.30771
      10 -> 18        -0.11619
      11 -> 22         0.50132
      12 -> 26        -0.10943

 Excited State  46:      Singlet-B1    15.2661 eV   81.22 nm  f=0.0225  <S**2>=0.000
       9 -> 16         0.18314
      13 -> 27         0.65111

 Excited State  47:      Singlet-A1    15.2861 eV   81.11 nm  f=0.0089  <S**2>=0.000
       8 -> 16         0.51810
       8 -> 17        -0.15999
      11 -> 21         0.41635

 Excited State  48:      Singlet-A2    15.3573 eV   80.73 nm  f=0.0000  <S**2>=0.000
       9 -> 15         0.55280
      10 -> 22         0.12075
      13 -> 25        -0.13219
      13 -> 26        -0.36168

 Excited State  49:      Singlet-A1    15.3818 eV   80.60 nm  f=0.1535  <S**2>=0.000
       7 -> 15         0.63002
       8 -> 16         0.11092
      10 -> 20        -0.17871

 Excited State  50:      Singlet-B2    15.3930 eV   80.55 nm  f=0.0448  <S**2>=0.000
       7 -> 17        -0.25922
       8 -> 15         0.55374
      11 -> 22         0.28702

 Excited State  51:      Singlet-B1    15.4788 eV   80.10 nm  f=0.0947  <S**2>=0.000
       9 -> 16         0.23558
       9 -> 17        -0.30210
      10 -> 19         0.12604
      10 -> 21         0.52451
      11 -> 24        -0.16270

 Excited State  52:      Singlet-A2    15.5396 eV   79.79 nm  f=0.0000  <S**2>=0.000
       7 -> 18         0.68973

 Excited State  53:      Singlet-B2    15.6679 eV   79.13 nm  f=0.0037  <S**2>=0.000
       7 -> 17         0.63428
       8 -> 15         0.19498
      11 -> 22         0.14240

 Excited State  54:      Singlet-A2    15.7286 eV   78.83 nm  f=0.0000  <S**2>=0.000
       8 -> 24         0.13041
      11 -> 23         0.62312
      12 -> 24         0.19031
      13 -> 25        -0.14786
      13 -> 26        -0.14078

 Excited State  55:      Singlet-A1    15.8017 eV   78.46 nm  f=0.0527  <S**2>=0.000
       8 -> 17         0.10339
       9 -> 18         0.65496
      10 -> 20        -0.15539

 Excited State  56:      Singlet-B1    15.8228 eV   78.36 nm  f=0.0038  <S**2>=0.000
       8 -> 18         0.61900
      11 -> 20        -0.17198
      11 -> 24        -0.24767

 Excited State  57:      Singlet-A2    15.8823 eV   78.06 nm  f=0.0000  <S**2>=0.000
       9 -> 15         0.14883
       9 -> 19         0.14186
      10 -> 22         0.46717
      11 -> 23         0.19334
      13 -> 25         0.33740
      13 -> 26         0.27358

 Excited State  58:      Singlet-B1    15.9822 eV   77.58 nm  f=0.0001  <S**2>=0.000
       9 -> 16         0.13521
       9 -> 17         0.51697
      10 -> 19        -0.18106
      10 -> 21         0.34095
      13 -> 28        -0.19872

 Excited State  59:      Singlet-A1    16.0256 eV   77.37 nm  f=0.0026  <S**2>=0.000
       7 -> 15         0.10901
       7 -> 19         0.11491
       8 -> 17         0.59703
      10 -> 24        -0.17224
      11 -> 19        -0.12279
      11 -> 21         0.17705

 Excited State  60:      Singlet-B1    16.1175 eV   76.93 nm  f=0.0000  <S**2>=0.000
       9 -> 17         0.22196
      11 -> 24        -0.17116
      13 -> 28         0.61148

 Excited State  61:      Singlet-B2    16.1813 eV   76.62 nm  f=0.0635  <S**2>=0.000
       8 -> 19        -0.21160
       9 -> 24         0.13627
      10 -> 23         0.63749

 Excited State  62:      Singlet-B1    16.2350 eV   76.37 nm  f=0.2402  <S**2>=0.000
       7 -> 20        -0.19201
       8 -> 18         0.20567
       8 -> 23         0.14746
      10 -> 21         0.13795
      11 -> 24         0.53047
      13 -> 28         0.25361

 Excited State  63:      Singlet-A1    16.4888 eV   75.19 nm  f=0.0600  <S**2>=0.000
       7 -> 19         0.66297
       8 -> 17        -0.12321

 Excited State  64:      Singlet-B2    16.4905 eV   75.19 nm  f=0.1953  <S**2>=0.000
       8 -> 19         0.41245
       9 -> 20        -0.12552
      11 -> 27         0.10883
      12 -> 25         0.34584
      12 -> 26        -0.38090

 Excited State  65:      Singlet-A2    16.5131 eV   75.08 nm  f=0.0000  <S**2>=0.000
       9 -> 15        -0.10638
       9 -> 19         0.65306
       9 -> 21         0.10783
      10 -> 17        -0.13958
      10 -> 22        -0.12386

 Excited State  66:      Singlet-B2    16.7078 eV   74.21 nm  f=0.0096  <S**2>=0.000
       8 -> 19         0.39034
       9 -> 20         0.46234
      10 -> 23         0.16919
      12 -> 25        -0.17336
      12 -> 26         0.13641

 Excited State  67:      Singlet-B1    16.7557 eV   74.00 nm  f=0.2462  <S**2>=0.000
       7 -> 20         0.65151
      11 -> 24         0.16294

 Excited State  68:      Singlet-A2    16.8647 eV   73.52 nm  f=0.0000  <S**2>=0.000
       8 -> 20         0.68996

 Excited State  69:      Singlet-A1    16.9279 eV   73.24 nm  f=0.0795  <S**2>=0.000
       7 -> 19         0.14027
       8 -> 17         0.15322
       9 -> 23         0.15056
      10 -> 24         0.60591
      12 -> 27        -0.11731

 Excited State  70:      Singlet-B2    16.9990 eV   72.94 nm  f=0.0005  <S**2>=0.000
       7 -> 22         0.23443
       8 -> 19        -0.23489
       8 -> 21        -0.13537
       9 -> 20         0.43345
      10 -> 23        -0.11460
      11 -> 27         0.14155
      12 -> 26        -0.34619

 Excited State  71:      Singlet-A1    17.0329 eV   72.79 nm  f=0.0108  <S**2>=0.000
       7 -> 21         0.14471
      10 -> 24         0.10176
      11 -> 25         0.13047
      11 -> 26        -0.16480
      12 -> 27         0.61656

 Excited State  72:      Singlet-B2    17.3456 eV   71.48 nm  f=0.0238  <S**2>=0.000
       7 -> 22        -0.15725
       8 -> 21        -0.16973
       9 -> 20         0.20025
      12 -> 25         0.50957
      12 -> 26         0.33809

 Excited State  73:      Singlet-A2    17.5430 eV   70.67 nm  f=0.0000  <S**2>=0.000
       9 -> 19        -0.11236
       9 -> 21         0.65234
      13 -> 30         0.16033

 Excited State  74:      Singlet-B1    17.5671 eV   70.58 nm  f=0.1453  <S**2>=0.000
       9 -> 22         0.53578
      10 -> 25         0.18123
      13 -> 29        -0.28002
      13 -> 32        -0.25643

 Excited State  75:      Singlet-B2    17.6153 eV   70.38 nm  f=0.0178  <S**2>=0.000
       7 -> 22         0.10408
       8 -> 19        -0.13985
       8 -> 21         0.64085
      12 -> 25         0.16022

 Excited State  76:      Singlet-B1    17.6750 eV   70.15 nm  f=0.0268  <S**2>=0.000
       9 -> 22         0.33571
      10 -> 25         0.12157
      13 -> 29         0.57462
      13 -> 32         0.16129

 Excited State  77:      Singlet-A1    17.8100 eV   69.61 nm  f=0.0181  <S**2>=0.000
       7 -> 21         0.29829
       8 -> 22        -0.25113
      10 -> 24         0.11410
      11 -> 25        -0.15389
      12 -> 27        -0.15163
      12 -> 28         0.50295

 Excited State  78:      Singlet-A1    17.8246 eV   69.56 nm  f=0.0313  <S**2>=0.000
       7 -> 21         0.54133
      11 -> 26         0.13993
      12 -> 28        -0.37788

 Excited State  79:      Singlet-A1    17.9682 eV   69.00 nm  f=0.0845  <S**2>=0.000
       7 -> 21         0.20717
       8 -> 22         0.53163
      11 -> 25         0.22288
      12 -> 27        -0.10207
      12 -> 28         0.19560
      13 -> 31         0.16957

 Excited State  80:      Singlet-B2    17.9819 eV   68.95 nm  f=0.0399  <S**2>=0.000
       7 -> 22         0.60925
      11 -> 27        -0.15912
      12 -> 25         0.10060
      12 -> 26         0.20083

 Excited State  81:      Singlet-A2    18.3919 eV   67.41 nm  f=0.0000  <S**2>=0.000
       7 -> 23         0.41216
       9 -> 21        -0.12108
      10 -> 27        -0.10889
      10 -> 28        -0.16083
      13 -> 30         0.50704

 Excited State  82:      Singlet-A1    18.4242 eV   67.29 nm  f=0.0140  <S**2>=0.000
       6 -> 14         0.23013
       8 -> 22         0.16059
       9 -> 23        -0.35846
      10 -> 24         0.15726
      11 -> 25        -0.25658
      11 -> 26         0.38088
      12 -> 27         0.14055

 Excited State  83:      Singlet-B1    18.4319 eV   67.27 nm  f=0.0448  <S**2>=0.000
      10 -> 25         0.22775
      10 -> 26        -0.27068
      13 -> 29        -0.22450
      13 -> 32         0.53274

 Excited State  84:      Singlet-A2    18.5375 eV   66.88 nm  f=0.0000  <S**2>=0.000
       7 -> 23         0.55523
       9 -> 21         0.14011
      10 -> 28         0.11983
      13 -> 30        -0.37145

 Excited State  85:      Singlet-B1    18.5704 eV   66.76 nm  f=0.0448  <S**2>=0.000
       7 -> 24         0.13737
       8 -> 23         0.64532
      10 -> 26        -0.11630
      11 -> 24        -0.17896

 Excited State  86:      Singlet-A1    18.6271 eV   66.56 nm  f=0.0018  <S**2>=0.000
       6 -> 14         0.30230
       8 -> 22         0.13323
       9 -> 23         0.52243
      10 -> 24        -0.14448
      11 -> 25        -0.11334
      11 -> 26         0.19636

 Excited State  87:      Singlet-A1    18.7604 eV   66.09 nm  f=0.0210  <S**2>=0.000
       6 -> 14         0.50969
       6 -> 16         0.13950
       9 -> 23        -0.12450
      11 -> 25         0.15439
      11 -> 26        -0.19030
      12 -> 28        -0.10977
      13 -> 31        -0.29503

 Excited State  88:      Singlet-B1    18.7669 eV   66.07 nm  f=0.0210  <S**2>=0.000
       7 -> 24        -0.11217
       8 -> 23         0.16196
       9 -> 22         0.14792
      10 -> 25        -0.32466
      10 -> 26         0.44885
      13 -> 29        -0.12899
      13 -> 32         0.29749

 Excited State  89:      Singlet-A1    18.8887 eV   65.64 nm  f=0.0088  <S**2>=0.000
       6 -> 14         0.18997
       8 -> 22        -0.26689
      11 -> 25         0.31577
      11 -> 26         0.11286
      13 -> 31         0.50042

 Excited State  90:      Singlet-B2    18.9263 eV   65.51 nm  f=0.2327  <S**2>=0.000
       6 -> 15         0.15016
       9 -> 24        -0.34014
      11 -> 27         0.41817
      11 -> 28         0.27466
      12 -> 26         0.10401
      12 -> 30        -0.13438
      13 -> 33        -0.11804

 Excited State  91:      Singlet-A2    19.0184 eV   65.19 nm  f=0.0000  <S**2>=0.000
       8 -> 24         0.51197
      10 -> 27        -0.41143
      11 -> 23        -0.11425
      13 -> 30        -0.12523

 Excited State  92:      Singlet-B1    19.0455 eV   65.10 nm  f=0.0024  <S**2>=0.000
       7 -> 24         0.60595
       9 -> 22         0.16161
      10 -> 25        -0.24193
      10 -> 26        -0.11256

 Excited State  93:      Singlet-B2    19.1366 eV   64.79 nm  f=0.0000  <S**2>=0.000
       9 -> 24         0.56664
      11 -> 27         0.14378
      11 -> 28         0.30994
      12 -> 30        -0.11554

 Excited State  94:      Singlet-A1    19.1675 eV   64.68 nm  f=0.1564  <S**2>=0.000
      11 -> 25         0.41123
      11 -> 26         0.41003
      12 -> 29        -0.11189
      13 -> 31        -0.30835

 Excited State  95:      Singlet-A2    19.1687 eV   64.68 nm  f=0.0000  <S**2>=0.000
       8 -> 24         0.43872
       9 -> 26         0.11466
      10 -> 27         0.46709
      10 -> 28         0.13869
      13 -> 30         0.13372

 Excited State  96:      Singlet-B2    19.2575 eV   64.38 nm  f=0.0456  <S**2>=0.000
       6 -> 15        -0.11779
       9 -> 24        -0.18044
      11 -> 27        -0.33205
      11 -> 28         0.46632
      12 -> 30        -0.13409
      13 -> 33         0.26136

 Excited State  97:      Singlet-B1    19.2978 eV   64.25 nm  f=0.0118  <S**2>=0.000
       7 -> 24         0.27440
       9 -> 22        -0.16228
      10 -> 25         0.45280
      10 -> 26         0.41147

 Excited State  98:      Singlet-A1    19.4531 eV   63.73 nm  f=0.1044  <S**2>=0.000
       9 -> 23        -0.11890
      12 -> 29         0.63571
      12 -> 32         0.12719
      13 -> 37         0.10668

 Excited State  99:      Singlet-A2    19.5017 eV   63.58 nm  f=0.0000  <S**2>=0.000
      13 -> 34         0.67566

 Excited State 100:      Singlet-B2    19.5356 eV   63.47 nm  f=0.1391  <S**2>=0.000
      11 -> 27         0.21907
      11 -> 28        -0.15750
      13 -> 33         0.63281

 Excited State 101:      Singlet-A1    19.6839 eV   62.99 nm  f=0.0376  <S**2>=0.000
       6 -> 14        -0.12761
       6 -> 16         0.63783
      12 -> 32         0.11468

 Excited State 102:      Singlet-A2    19.9614 eV   62.11 nm  f=0.0000  <S**2>=0.000

 The electronic state is 1-A1.
 Alpha  occ. eigenvalues --  -19.25163 -10.32162 -10.32160  -1.14073  -0.82102
 Alpha  occ. eigenvalues --   -0.73322  -0.56634  -0.56326  -0.56303  -0.47985
 Alpha  occ. eigenvalues --   -0.46094  -0.40616  -0.34330
 Alpha virt. eigenvalues --    0.11778   0.15988   0.16479   0.18389   0.18650
 Alpha virt. eigenvalues --    0.20900   0.22672   0.26048   0.27706   0.29484
 Alpha virt. eigenvalues --    0.30916   0.40039   0.40520   0.42192   0.42339

 Mulliken charges:
               1
     1  C   -0.152345
     2  O   -0.323399
     3  C   -0.152345
     4  H    0.124119
     5  H    0.094963
     6  H    0.094963
     7  H    0.124119
     8  H    0.094963
     9  H    0.094963
 Sum of Mulliken charges =   0.00000

 Dipole moment (field-independent basis, Debye):
    X=             -0.0000    Y=             -0.0000    Z=             -1.2472  Tot=              1.2472
 Quadrupole moment (field-independent basis, Debye-Ang):
   XX=            -20.1312   YY=            -17.2934   ZZ=            -21.1855
   XY=             -0.0000   XZ=              0.0000   YZ=             -0.0000

 Normal termination of Gaussian 16 at Sat Aug 14 06:19:46 2021.
