 Gaussian 16, Revision C.01,
 Gaussian 16:  EM64L-G16RevC.01  3-Jul-2019

 ----------------------------------------------------------------------
 #P TD(Nstates=10000) wB97XD/def2TZVP SCF(maxcycles=100) Int(Grid=ultra
 fine)
 ----------------------------------------------------------------------

 ---------------------
 xGDB7_00001_tier4.com
 ---------------------
 Symbolic Z-matrix:
 Charge =  0 Multiplicity = 1

                         Standard orientation:
 ---------------------------------------------------------------------
 Center     Atomic      Atomic             Coordinates (Angstroms)
 Number     Number       Type             X           Y           Z
 ---------------------------------------------------------------------
      1          6           0        0.000000    0.729549   -0.367364
      2          6           0       -0.000000   -0.729549   -0.367364
      3          8           0       -0.000000   -0.000000    0.845033
      4          1           0       -0.918945    1.264243   -0.587975
      5          1           0        0.918945    1.264243   -0.587975
      6          1           0        0.918945   -1.264243   -0.587975
      7          1           0       -0.918945   -1.264243   -0.587975
 ---------------------------------------------------------------------

 SCF Done:  E(RwB97XD) =  -153.801031408     A.U. after   12 cycles

 Excitation energies and oscillator strengths:

 Excited State   1:      Singlet-B1     8.5040 eV  145.80 nm  f=0.0000  <S**2>=0.000
      12 -> 13         0.10607
      12 -> 15         0.69324
 This state for optimization and/or second-order correction.
 Total Energy, E(TD-HF/TD-DFT) =  -153.488516925
 Copying the excited state density for this state as the 1-particle RhoCI density.

 Excited State   2:      Singlet-A2     8.5051 eV  145.78 nm  f=0.0000  <S**2>=0.000
      12 -> 14         0.56469
      12 -> 17        -0.41538

 Excited State   3:      Singlet-B1     8.7622 eV  141.50 nm  f=0.0909  <S**2>=0.000
      12 -> 13         0.69364
      12 -> 15        -0.10203

 Excited State   4:      Singlet-A1     9.6254 eV  128.81 nm  f=0.0034  <S**2>=0.000
      11 -> 13         0.10326
      11 -> 15         0.59717
      12 -> 16        -0.35561

 Excited State   5:      Singlet-A2     9.7053 eV  127.75 nm  f=0.0000  <S**2>=0.000
      10 -> 13        -0.10212
      12 -> 14         0.41621
      12 -> 17         0.55106

 Excited State   6:      Singlet-A1     9.7061 eV  127.74 nm  f=0.0053  <S**2>=0.000
      11 -> 13         0.61837
      12 -> 16         0.32106

 Excited State   7:      Singlet-A1     9.9222 eV  124.96 nm  f=0.0859  <S**2>=0.000
      11 -> 13        -0.31818
      11 -> 15         0.35151
      12 -> 16         0.50776

 Excited State   8:      Singlet-B2    10.2605 eV  120.84 nm  f=0.2583  <S**2>=0.000
       9 -> 15         0.13096
      11 -> 14         0.67413
      11 -> 17        -0.12491

 Excited State   9:      Singlet-B1    10.5279 eV  117.77 nm  f=0.0186  <S**2>=0.000
      11 -> 16         0.69781

 Excited State  10:      Singlet-B2    10.9529 eV  113.20 nm  f=0.0103  <S**2>=0.000
       9 -> 15        -0.10577
      11 -> 14         0.15660
      11 -> 17         0.67031

 Excited State  11:      Singlet-B2    11.4102 eV  108.66 nm  f=0.1663  <S**2>=0.000
      10 -> 16        -0.12707
      12 -> 18         0.69048

 Excited State  12:      Singlet-A2    11.4786 eV  108.01 nm  f=0.0000  <S**2>=0.000
      10 -> 13         0.68874

 Excited State  13:      Singlet-B1    11.5842 eV  107.03 nm  f=0.0358  <S**2>=0.000
      10 -> 14         0.61567
      10 -> 17        -0.27584
      12 -> 19         0.17254

 Excited State  14:      Singlet-A2    11.6840 eV  106.11 nm  f=0.0000  <S**2>=0.000
      10 -> 15         0.69530

 Excited State  15:      Singlet-B2    12.0051 eV  103.28 nm  f=0.1980  <S**2>=0.000
       9 -> 13         0.56635
       9 -> 15        -0.38765

 Excited State  16:      Singlet-B1    12.0581 eV  102.82 nm  f=0.0152  <S**2>=0.000
      10 -> 17         0.32036
      12 -> 19         0.62246

 Excited State  17:      Singlet-B2    12.2024 eV  101.61 nm  f=0.0300  <S**2>=0.000
       9 -> 13         0.40532
       9 -> 15         0.54945
      11 -> 17         0.10443

 Excited State  18:      Singlet-A2    12.2834 eV  100.94 nm  f=0.0000  <S**2>=0.000
      11 -> 18         0.69959

 Excited State  19:      Singlet-A1    12.5197 eV   99.03 nm  f=0.0199  <S**2>=0.000
       9 -> 14         0.66165
       9 -> 17        -0.15312

 Excited State  20:      Singlet-A2    12.6162 eV   98.27 nm  f=0.0000  <S**2>=0.000
      12 -> 20         0.68093
      12 -> 21         0.11743

 Excited State  21:      Singlet-B2    12.6927 eV   97.68 nm  f=0.1476  <S**2>=0.000
      10 -> 16         0.68260
      12 -> 18         0.12709

 Excited State  22:      Singlet-B1    12.7540 eV   97.21 nm  f=0.1975  <S**2>=0.000
      10 -> 14         0.32313
      10 -> 17         0.55113
      12 -> 19        -0.27385

 Excited State  23:      Singlet-A2    12.9113 eV   96.03 nm  f=0.0000  <S**2>=0.000
       9 -> 16         0.69724

 Excited State  24:      Singlet-A1    13.0731 eV   94.84 nm  f=0.0006  <S**2>=0.000
       9 -> 17         0.20211
      11 -> 19         0.65787

 Excited State  25:      Singlet-A1    13.4408 eV   92.24 nm  f=0.1425  <S**2>=0.000
       9 -> 14         0.19036
       9 -> 17         0.59446
      11 -> 19        -0.20848
      11 -> 22        -0.11979
      12 -> 23        -0.17570

 Excited State  26:      Singlet-B2    13.5480 eV   91.51 nm  f=0.0535  <S**2>=0.000
      11 -> 20         0.68361
      11 -> 21         0.12194

 Excited State  27:      Singlet-A2    13.7580 eV   90.12 nm  f=0.0000  <S**2>=0.000
      12 -> 17         0.10057
      12 -> 20        -0.12343
      12 -> 21         0.67967

 Excited State  28:      Singlet-B1    14.0811 eV   88.05 nm  f=0.0282  <S**2>=0.000
      12 -> 22         0.68241
      12 -> 24        -0.13889

 Excited State  29:      Singlet-A1    14.2962 eV   86.73 nm  f=0.1018  <S**2>=0.000
       8 -> 15        -0.39221
      10 -> 18         0.51092
      11 -> 22         0.23724

 Excited State  30:      Singlet-B2    14.4321 eV   85.91 nm  f=0.1078  <S**2>=0.000
       8 -> 14         0.61150
       8 -> 17        -0.32866

 Excited State  31:      Singlet-A1    14.5055 eV   85.47 nm  f=0.0178  <S**2>=0.000
       8 -> 13         0.56302
       8 -> 15        -0.19883
      10 -> 18        -0.28388
      11 -> 22         0.10597
      12 -> 23         0.17895

 Excited State  32:      Singlet-B1    14.6728 eV   84.50 nm  f=0.0557  <S**2>=0.000
       8 -> 16        -0.20174
       9 -> 18         0.66504

 Excited State  33:      Singlet-A1    14.7040 eV   84.32 nm  f=0.0055  <S**2>=0.000
       8 -> 13        -0.33002
       8 -> 15        -0.32168
      10 -> 18        -0.19268
      11 -> 22        -0.19379
      12 -> 23         0.44115

 Excited State  34:      Singlet-A2    14.7616 eV   83.99 nm  f=0.0000  <S**2>=0.000
       7 -> 14        -0.30466
      10 -> 19         0.62031

 Excited State  35:      Singlet-A1    14.7737 eV   83.92 nm  f=0.0099  <S**2>=0.000
       8 -> 13         0.16346
       8 -> 15         0.35574
       9 -> 17         0.11142
      10 -> 18         0.27071
      11 -> 22        -0.21516
      11 -> 24         0.14013
      12 -> 23         0.42066

 Excited State  36:      Singlet-B1    15.0274 eV   82.51 nm  f=0.0120  <S**2>=0.000
       7 -> 13         0.23881
       7 -> 15        -0.35232
      10 -> 21         0.11704
      11 -> 23        -0.13836
      12 -> 24         0.51318

 Excited State  37:      Singlet-B2    15.0418 eV   82.43 nm  f=0.0846  <S**2>=0.000
       8 -> 14        -0.10599
       8 -> 17        -0.25125
       9 -> 19        -0.23843
      11 -> 20        -0.10147
      11 -> 21         0.58237

 Excited State  38:      Singlet-B1    15.2950 eV   81.06 nm  f=0.1801  <S**2>=0.000
       7 -> 13         0.40599
       7 -> 15         0.18175
      10 -> 20         0.27720
      11 -> 23         0.43557

 Excited State  39:      Singlet-A2    15.2987 eV   81.04 nm  f=0.0000  <S**2>=0.000
       7 -> 14         0.49205
       7 -> 17        -0.41149
      10 -> 19         0.26124

 Excited State  40:      Singlet-B1    15.3567 eV   80.74 nm  f=0.0532  <S**2>=0.000
       7 -> 13         0.19564
       8 -> 16         0.59698
       9 -> 18         0.19984
      10 -> 20        -0.12742
      11 -> 23         0.11598
      12 -> 24        -0.15339

 Excited State  41:      Singlet-B2    15.3665 eV   80.68 nm  f=0.0486  <S**2>=0.000
       8 -> 17         0.17566
       9 -> 19         0.59283
      11 -> 21         0.30634

 Excited State  42:      Singlet-A1    15.5267 eV   79.85 nm  f=0.3059  <S**2>=0.000
       8 -> 13        -0.17983
       8 -> 15         0.18949
       9 -> 17         0.12498
       9 -> 20         0.18289
      10 -> 18        -0.13311
      11 -> 22         0.53525
      11 -> 24         0.17172
      12 -> 23         0.15685

 Excited State  43:      Singlet-B1    15.5491 eV   79.74 nm  f=0.0331  <S**2>=0.000
       7 -> 13         0.46782
       8 -> 16        -0.19008
      10 -> 20        -0.19169
      11 -> 23        -0.33310
      12 -> 24        -0.26993

 Excited State  44:      Singlet-B1    15.6150 eV   79.40 nm  f=0.0178  <S**2>=0.000
       7 -> 15         0.54363
      10 -> 20        -0.26768
      12 -> 22         0.10741
      12 -> 24         0.30230

 Excited State  45:      Singlet-B2    15.7225 eV   78.86 nm  f=0.0604  <S**2>=0.000
       8 -> 14         0.31713
       8 -> 17         0.52616
       9 -> 19        -0.28080
      11 -> 21         0.15704

 Excited State  46:      Singlet-B1    16.0391 eV   77.30 nm  f=0.5202  <S**2>=0.000
       7 -> 15         0.13944
       8 -> 16         0.18924
      10 -> 20         0.51974
      11 -> 23        -0.38711

 Excited State  47:      Singlet-A1    16.0438 eV   77.28 nm  f=0.0739  <S**2>=0.000
       9 -> 20         0.63321
      11 -> 24        -0.26123

 Excited State  48:      Singlet-A1    16.4780 eV   75.24 nm  f=0.0234  <S**2>=0.000
       7 -> 16         0.64415
       8 -> 19         0.10776
       9 -> 21         0.18482

 Excited State  49:      Singlet-A2    16.5101 eV   75.10 nm  f=0.0000  <S**2>=0.000
       7 -> 14         0.38423
       7 -> 17         0.54425
       8 -> 18         0.12617
      10 -> 19         0.15727

 Excited State  50:      Singlet-A1    16.9166 eV   73.29 nm  f=0.1234  <S**2>=0.000
       9 -> 17        -0.13730
       9 -> 20         0.20801
       9 -> 21        -0.29978
      11 -> 22        -0.13795
      11 -> 24         0.52300
      12 -> 33         0.12441

 Excited State  51:      Singlet-B1    16.9641 eV   73.09 nm  f=0.0127  <S**2>=0.000
      10 -> 21         0.68215

 Excited State  52:      Singlet-A2    17.0279 eV   72.81 nm  f=0.0000  <S**2>=0.000
       6 -> 16         0.10241
       7 -> 17        -0.10291
       8 -> 18         0.59671
      10 -> 22         0.31545

 Excited State  53:      Singlet-A2    17.0832 eV   72.58 nm  f=0.0000  <S**2>=0.000
       8 -> 18        -0.32476
      10 -> 22         0.59016
      12 -> 27        -0.14521

 Excited State  54:      Singlet-B2    17.2570 eV   71.85 nm  f=0.0605  <S**2>=0.000
      12 -> 26         0.68692

 Excited State  55:      Singlet-B2    17.4327 eV   71.12 nm  f=0.0115  <S**2>=0.000
       6 -> 15        -0.10475
       9 -> 22         0.65785
      10 -> 23         0.16908

 Excited State  56:      Singlet-A1    17.5290 eV   70.73 nm  f=0.0577  <S**2>=0.000
       8 -> 19        -0.34637
       9 -> 21         0.48580
      11 -> 24         0.17046
      12 -> 25         0.26767

 Excited State  57:      Singlet-A1    17.5737 eV   70.55 nm  f=0.0036  <S**2>=0.000
       8 -> 19         0.21061
       9 -> 21        -0.14926
      12 -> 25         0.63302

 Excited State  58:      Singlet-B2    17.6908 eV   70.08 nm  f=0.2493  <S**2>=0.000
       7 -> 18         0.22024
       8 -> 20         0.10111
       9 -> 22        -0.12091
       9 -> 24         0.11659
      10 -> 23         0.61921

 Excited State  59:      Singlet-A2    17.7441 eV   69.87 nm  f=0.0000  <S**2>=0.000
       9 -> 23         0.18347
      10 -> 22         0.12236
      12 -> 27         0.56028
      12 -> 28        -0.33530

 Excited State  60:      Singlet-A2    17.9710 eV   68.99 nm  f=0.0000  <S**2>=0.000
       9 -> 23         0.66856
      12 -> 27        -0.19438

 Excited State  61:      Singlet-B2    18.0651 eV   68.63 nm  f=0.0007  <S**2>=0.000
       6 -> 15         0.13240
       7 -> 18         0.57729
       9 -> 24        -0.30355
      10 -> 23        -0.11543

 Excited State  62:      Singlet-A2    18.1091 eV   68.47 nm  f=0.0000  <S**2>=0.000
       9 -> 23         0.10291
      10 -> 22         0.13572
      10 -> 24        -0.21132
      12 -> 27         0.25485
      12 -> 28         0.58156

 Excited State  63:      Singlet-A1    18.2969 eV   67.76 nm  f=0.0645  <S**2>=0.000
       7 -> 16        -0.19834
       8 -> 19         0.52757
       9 -> 21         0.27867
      11 -> 24         0.15402

 Excited State  64:      Singlet-B2    18.3532 eV   67.55 nm  f=0.0491  <S**2>=0.000
       6 -> 15         0.19857
       7 -> 18        -0.23428
       8 -> 20         0.54051
       9 -> 24        -0.29732

 Excited State  65:      Singlet-A2    18.3778 eV   67.46 nm  f=0.0000  <S**2>=0.000
       7 -> 21        -0.10339
      10 -> 24         0.47936
      11 -> 26         0.45969
      12 -> 27         0.15060
      12 -> 28         0.12025

 Excited State  66:      Singlet-B2    18.4720 eV   67.12 nm  f=0.0821  <S**2>=0.000
       8 -> 20         0.28062
       8 -> 21         0.12123
       9 -> 24         0.27963
      11 -> 27         0.46018
      11 -> 28        -0.27143

 Excited State  67:      Singlet-B1    18.4751 eV   67.11 nm  f=0.0123  <S**2>=0.000
      11 -> 25         0.25982
      12 -> 29        -0.40786
      12 -> 30         0.49878

 Excited State  68:      Singlet-A2    18.5692 eV   66.77 nm  f=0.0000  <S**2>=0.000
      10 -> 24        -0.42054
      11 -> 26         0.52812
      12 -> 27        -0.13239

 Excited State  69:      Singlet-B1    18.5796 eV   66.73 nm  f=0.0002  <S**2>=0.000
       7 -> 19        -0.13275
      11 -> 25         0.63442
      12 -> 30        -0.24711

 Excited State  70:      Singlet-B1    18.7418 eV   66.15 nm  f=0.0402  <S**2>=0.000
       7 -> 19         0.64885
      12 -> 30        -0.17550

 Excited State  71:      Singlet-B2    18.8063 eV   65.93 nm  f=0.0372  <S**2>=0.000
       5 -> 14        -0.10130
       6 -> 13         0.43979
       8 -> 20        -0.16077
       9 -> 24        -0.25606
      10 -> 23         0.11068
      11 -> 27         0.33405
      11 -> 28         0.22835

 Excited State  72:      Singlet-B2    18.9472 eV   65.44 nm  f=0.0002  <S**2>=0.000
       6 -> 13         0.40893
       6 -> 15        -0.30048
       9 -> 24        -0.13191
      11 -> 27        -0.29768
      11 -> 28        -0.31646

 Excited State  73:      Singlet-B2    18.9964 eV   65.27 nm  f=0.0220  <S**2>=0.000
       6 -> 13         0.18893
       6 -> 15         0.54192
       8 -> 20        -0.10875
       8 -> 21        -0.15412
       9 -> 24         0.16055
      11 -> 27        -0.11789
      11 -> 28        -0.27820

 Excited State  74:      Singlet-A1    19.0415 eV   65.11 nm  f=0.0056  <S**2>=0.000
       6 -> 14         0.60829
       6 -> 17        -0.23212
       8 -> 19         0.11881
      11 -> 29         0.12706
      11 -> 30         0.12641

 Excited State  75:      Singlet-B1    19.2096 eV   64.54 nm  f=0.0757  <S**2>=0.000
       7 -> 19         0.14206
       8 -> 23        -0.12000
      12 -> 29         0.54185
      12 -> 30         0.37612

 Excited State  76:      Singlet-A2    19.3289 eV   64.14 nm  f=0.0000  <S**2>=0.000
       6 -> 16         0.21287
       7 -> 20         0.64231
      12 -> 31        -0.11455

 Excited State  77:      Singlet-B2    19.6609 eV   63.06 nm  f=0.0064  <S**2>=0.000
       5 -> 14        -0.20826
       6 -> 13        -0.16119
       8 -> 20        -0.15104
       8 -> 21         0.54340
       9 -> 24        -0.14217
      11 -> 28        -0.23011

 Excited State  78:      Singlet-A1    19.6626 eV   63.06 nm  f=0.0403  <S**2>=0.000
       5 -> 13        -0.15553
       5 -> 15        -0.23746
       6 -> 17         0.14479
       8 -> 22         0.38589
      11 -> 29        -0.38470
      11 -> 30         0.19603
      12 -> 33        -0.20952

 Excited State  79:      Singlet-A2    19.6942 eV   62.95 nm  f=0.0000  <S**2>=0.000
       6 -> 16         0.64545
       7 -> 20        -0.23454
       8 -> 18        -0.10628

 Excited State  80:      Singlet-A1    19.7809 eV   62.68 nm  f=0.0297  <S**2>=0.000
       5 -> 13         0.38000
       5 -> 15        -0.31113
       6 -> 14        -0.16283
       6 -> 17        -0.12496
       8 -> 22         0.31111
      10 -> 26        -0.10973
      11 -> 29         0.30007

 Excited State  81:      Singlet-B2    19.8460 eV   62.47 nm  f=0.1472  <S**2>=0.000
       5 -> 14         0.35049
       5 -> 17        -0.14541
       6 -> 13         0.15012
       6 -> 15         0.13918
       7 -> 18         0.10700
       8 -> 21         0.36752
       9 -> 24         0.15489
      11 -> 27        -0.14019
      11 -> 28         0.24070

 Excited State  82:      Singlet-A1    20.0768 eV   61.76 nm  f=0.0548  <S**2>=0.000
       5 -> 13         0.42534
       5 -> 15         0.22590
       8 -> 22        -0.13132
      10 -> 26        -0.17478
      11 -> 29        -0.26218
      11 -> 30         0.29228
      12 -> 33        -0.12978

 Excited State  83:      Singlet-A1    20.1488 eV   61.53 nm  f=0.0818  <S**2>=0.000
       5 -> 13        -0.31832
       6 -> 14        -0.23791
       6 -> 17        -0.34971
       8 -> 24        -0.16132
      11 -> 29         0.17048
      11 -> 30         0.35674

 Excited State  84:      Singlet-A1    20.2452 eV   61.24 nm  f=0.0798  <S**2>=0.000
       5 -> 15         0.41615
       6 -> 17         0.28808
       8 -> 22         0.35061
       9 -> 28        -0.14741
      11 -> 29         0.21851
      11 -> 30         0.12859

 Excited State  85:      Singlet-A2    20.2813 eV   61.13 nm  f=0.0000  <S**2>=0.000
       7 -> 20         0.10225
       9 -> 25        -0.10056
      12 -> 31         0.67752

 Excited State  86:      Singlet-B1    20.3372 eV   60.96 nm  f=0.0007  <S**2>=0.000
       5 -> 16        -0.20172
       6 -> 18         0.14143
       7 -> 19         0.10057
       7 -> 22         0.29587
       8 -> 23         0.29136
      10 -> 27         0.48370
      12 -> 29         0.10036

 Excited State  87:      Singlet-A1    20.4457 eV   60.64 nm  f=0.0285  <S**2>=0.000
       5 -> 15        -0.25638
       6 -> 17         0.36609
       7 -> 23         0.10153
       8 -> 22        -0.29540
      11 -> 29         0.22921
      11 -> 30         0.34447

 Excited State  88:      Singlet-B1    20.4572 eV   60.61 nm  f=0.0295  <S**2>=0.000
       5 -> 16        -0.11585
       7 -> 22        -0.26621
       8 -> 23         0.53743
       9 -> 26         0.16375
      10 -> 27        -0.25545
      11 -> 33         0.10122

 Excited State  89:      Singlet-A1    20.5693 eV   60.28 nm  f=0.1038  <S**2>=0.000
       7 -> 23         0.11532
       8 -> 24        -0.33665
       9 -> 28         0.13771
      10 -> 26         0.44970
      12 -> 33        -0.32671

 Excited State  90:      Singlet-B2    20.6577 eV   60.02 nm  f=0.1646  <S**2>=0.000
       5 -> 14        -0.36252
       5 -> 17         0.39295
       6 -> 13         0.10576
       8 -> 20         0.10346
       8 -> 28         0.13147
       9 -> 24         0.16753
      10 -> 25         0.13352
      11 -> 27        -0.15238
      11 -> 28         0.21807

 Excited State  91:      Singlet-B1    20.6906 eV   59.92 nm  f=0.0248  <S**2>=0.000
       5 -> 16         0.39279
       6 -> 18        -0.13452
       7 -> 22         0.30341
       8 -> 23         0.17743
       9 -> 26         0.33319
      10 -> 28         0.25932
      11 -> 33        -0.10738

 Excited State  92:      Singlet-A2    20.7314 eV   59.81 nm  f=0.0000  <S**2>=0.000
       7 -> 21         0.67357
      10 -> 24         0.15333

 Excited State  93:      Singlet-B2    20.7968 eV   59.62 nm  f=0.0042  <S**2>=0.000
       5 -> 17        -0.22191
      10 -> 25         0.45637
      12 -> 32         0.46475

 Excited State  94:      Singlet-B1    20.8442 eV   59.48 nm  f=0.0622  <S**2>=0.000
       5 -> 16        -0.22009
       8 -> 23        -0.22899
       9 -> 26         0.57043
      10 -> 28        -0.16046
      11 -> 33         0.13272

 Excited State  95:      Singlet-A2    20.8847 eV   59.37 nm  f=0.0000  <S**2>=0.000
       9 -> 25         0.68227

 Excited State  96:      Singlet-B2    20.9375 eV   59.22 nm  f=0.3045  <S**2>=0.000
       5 -> 14         0.12071
       9 -> 30         0.13036
      10 -> 25         0.45406
      11 -> 31         0.22856
      12 -> 32        -0.42817

 Excited State  97:      Singlet-B1    20.9830 eV   59.09 nm  f=0.0338  <S**2>=0.000
       5 -> 16        -0.32823
       6 -> 18         0.11863
       7 -> 22         0.38097
      10 -> 27        -0.36662
      10 -> 28         0.20933
      11 -> 33         0.17798

 Excited State  98:      Singlet-B2    20.9863 eV   59.08 nm  f=0.0305  <S**2>=0.000
       5 -> 14         0.25712
       5 -> 17         0.35506
      11 -> 31         0.44963
      12 -> 32         0.25625

 Excited State  99:      Singlet-A1    21.0393 eV   58.93 nm  f=0.0019  <S**2>=0.000
       7 -> 23        -0.35303
       8 -> 24        -0.11700
       9 -> 27         0.42049
       9 -> 28        -0.11965
       9 -> 31        -0.11270
      10 -> 26        -0.21669
      11 -> 30        -0.17090
      12 -> 33        -0.20353

 Excited State 100:      Singlet-A1    21.1806 eV   58.54 nm  f=0.1048  <S**2>=0.000
       5 -> 15         0.10362
       9 -> 27        -0.32352
       9 -> 28         0.36025
      10 -> 26        -0.31830
      11 -> 29         0.10917
      11 -> 30        -0.14470
      12 -> 33        -0.29331

 Excited State 101:      Singlet-B1    21.2826 eV   58.26 nm  f=0.0026  <S**2>=0.000
       5 -> 16         0.12163
       7 -> 22        -0.18264
      10 -> 27         0.16676
      10 -> 28         0.31818
      11 -> 33         0.54972

 The electronic state is 1-A1.
 Alpha  occ. eigenvalues --  -19.26529 -10.33665 -10.33630  -1.18619  -0.77491
 Alpha  occ. eigenvalues --   -0.73270  -0.60856  -0.57501  -0.48776  -0.47047
 Alpha  occ. eigenvalues --   -0.40197  -0.36191
 Alpha virt. eigenvalues --    0.13390   0.15119   0.15400   0.16796   0.17925
 Alpha virt. eigenvalues --    0.22164   0.26250   0.28421   0.34330   0.34552
 Alpha virt. eigenvalues --    0.36696   0.41509   0.46958   0.47151   0.47157

 Mulliken charges:
               1
     1  C   -0.032433
     2  C   -0.032433
     3  O   -0.352953
     4  H    0.104455
     5  H    0.104455
     6  H    0.104455
     7  H    0.104455
 Sum of Mulliken charges =  -0.00000

 Dipole moment (field-independent basis, Debye):
    X=             -0.0000    Y=              0.0000    Z=             -1.8941  Tot=              1.8941
 Quadrupole moment (field-independent basis, Debye-Ang):
   XX=            -17.2290   YY=            -16.3901   ZZ=            -20.6448
   XY=              0.0000   XZ=             -0.0000   YZ=              0.0000

 Normal termination of Gaussian 16 at Sat Aug 14 06:22:37 2021.
