 Gaussian 16, Revision C.01,
 Gaussian 16:  EM64L-G16RevC.01  3-Jul-2019

 ----------------------------------------------------------------------
 #P TD(Nstates=10000) wB97XD/def2TZVP SCF(maxcycles=100) Int(Grid=ultra
 fine)
 ----------------------------------------------------------------------

 ---------------------
 xGDB7_00001_tier4.com
 ---------------------
 Symbolic Z-matrix:
 Charge =  0 Multiplicity = 1

                         Standard orientation:
 ---------------------------------------------------------------------
 Center     Atomic      Atomic             Coordinates (Angstroms)
 Number     Number       Type             X           Y           Z
 ---------------------------------------------------------------------
      1          6           0        0.046419    0.658432    0.000000
      2          8           0        0.046419   -0.751929    0.000000
      3          1           0       -0.438905    1.073261    0.890797
      4          1           0       -0.438905    1.073261   -0.890797
      5          1           0        1.087855    0.977571    0.000000
      6          1           0       -0.859911   -1.059251    0.000000
 ---------------------------------------------------------------------

 SCF Done:  E(RwB97XD) =  -115.734946158     A.U. after   12 cycles

 Excitation energies and oscillator strengths:

 Excited State   1:      Singlet-A"     7.4714 eV  165.95 nm  f=0.0001  <S**2>=0.000
       9 -> 10         0.68980
       9 -> 11        -0.13749
 This state for optimization and/or second-order correction.
 Total Energy, E(TD-HF/TD-DFT) =  -115.460379006
 Copying the excited state density for this state as the 1-particle RhoCI density.

 Excited State   2:      Singlet-A"     9.1307 eV  135.79 nm  f=0.0758  <S**2>=0.000
       9 -> 10         0.13829
       9 -> 11         0.68665

 Excited State   3:      Singlet-A'     9.3029 eV  133.27 nm  f=0.0012  <S**2>=0.000
       8 -> 10         0.69134

 Excited State   4:      Singlet-A"    10.0684 eV  123.14 nm  f=0.0038  <S**2>=0.000
       9 -> 12         0.61349
       9 -> 14        -0.33242

 Excited State   5:      Singlet-A'    10.4982 eV  118.10 nm  f=0.0999  <S**2>=0.000
       9 -> 13         0.69851

 Excited State   6:      Singlet-A"    10.5527 eV  117.49 nm  f=0.0209  <S**2>=0.000
       9 -> 12         0.33937
       9 -> 14         0.61141

 Excited State   7:      Singlet-A'    10.7191 eV  115.67 nm  f=0.1429  <S**2>=0.000
       8 -> 10         0.10198
       8 -> 11         0.68488

 Excited State   8:      Singlet-A'    11.7406 eV  105.60 nm  f=0.0711  <S**2>=0.000
       7 -> 10        -0.38581
       8 -> 12         0.46444
       8 -> 14        -0.33944

 Excited State   9:      Singlet-A"    11.9268 eV  103.95 nm  f=0.0956  <S**2>=0.000
       8 -> 13         0.69170

 Excited State  10:      Singlet-A'    11.9961 eV  103.35 nm  f=0.1579  <S**2>=0.000
       7 -> 10         0.51736
       8 -> 12         0.45970

 Excited State  11:      Singlet-A"    12.2511 eV  101.20 nm  f=0.0761  <S**2>=0.000
       6 -> 10         0.65444
       9 -> 15        -0.21921

 Excited State  12:      Singlet-A'    12.4486 eV   99.60 nm  f=0.0101  <S**2>=0.000
       7 -> 10        -0.23354
       8 -> 12         0.24026
       8 -> 14         0.60592

 Excited State  13:      Singlet-A"    12.8362 eV   96.59 nm  f=0.0143  <S**2>=0.000
       6 -> 10         0.22345
       9 -> 15         0.65829

 Excited State  14:      Singlet-A'    13.0205 eV   95.22 nm  f=0.0527  <S**2>=0.000
       7 -> 11        -0.34756
       9 -> 16         0.59451

 Excited State  15:      Singlet-A'    13.2518 eV   93.56 nm  f=0.1748  <S**2>=0.000
       7 -> 11         0.58681
       9 -> 16         0.33530

 Excited State  16:      Singlet-A"    13.4114 eV   92.45 nm  f=0.0605  <S**2>=0.000
       6 -> 11         0.67135
       6 -> 12         0.11797
       9 -> 17        -0.13578

 Excited State  17:      Singlet-A'    14.1517 eV   87.61 nm  f=0.0748  <S**2>=0.000
       5 -> 10         0.56431
       5 -> 11        -0.13905
       6 -> 13        -0.26027
       7 -> 12        -0.17931
       7 -> 14        -0.10754
       8 -> 15        -0.20254

 Excited State  18:      Singlet-A"    14.2859 eV   86.79 nm  f=0.0001  <S**2>=0.000
       6 -> 12         0.24147
       7 -> 13         0.65576

 Excited State  19:      Singlet-A'    14.3832 eV   86.20 nm  f=0.2498  <S**2>=0.000
       5 -> 10         0.32963
       6 -> 13         0.18637
       7 -> 12         0.50478
       8 -> 15         0.23454
       9 -> 16         0.12635

 Excited State  20:      Singlet-A"    14.4613 eV   85.74 nm  f=0.0068  <S**2>=0.000
       6 -> 12         0.55983
       7 -> 13        -0.20542
       8 -> 16        -0.34967

 Excited State  21:      Singlet-A"    14.5716 eV   85.09 nm  f=0.0008  <S**2>=0.000
       6 -> 11        -0.13193
       6 -> 12         0.26803
       6 -> 14        -0.24831
       8 -> 16         0.43282
       9 -> 17        -0.36356

 Excited State  22:      Singlet-A"    14.6299 eV   84.75 nm  f=0.0012  <S**2>=0.000
       6 -> 12         0.15060
       8 -> 16         0.36765
       9 -> 17         0.55513

 Excited State  23:      Singlet-A'    14.6458 eV   84.66 nm  f=0.0822  <S**2>=0.000
       6 -> 13         0.14195
       7 -> 12        -0.37205
       7 -> 14        -0.10470
       8 -> 15         0.54659

 Excited State  24:      Singlet-A'    14.7335 eV   84.15 nm  f=0.1094  <S**2>=0.000
       6 -> 13        -0.14931
       7 -> 14         0.65745
       8 -> 15         0.10446

 Excited State  25:      Singlet-A'    15.1845 eV   81.65 nm  f=0.0720  <S**2>=0.000
       5 -> 10         0.10479
       5 -> 11        -0.10192
       6 -> 13         0.55676
       7 -> 12        -0.16354
       7 -> 14         0.14929
       8 -> 15        -0.26420
       8 -> 17         0.13272

 Excited State  26:      Singlet-A"    15.3283 eV   80.89 nm  f=0.1816  <S**2>=0.000
       6 -> 14         0.63790
       8 -> 16         0.21322
       9 -> 17        -0.12595

 Excited State  27:      Singlet-A'    15.5158 eV   79.91 nm  f=0.1046  <S**2>=0.000
       5 -> 10         0.16090
       5 -> 11         0.65921
       8 -> 17        -0.12092

 Excited State  28:      Singlet-A"    16.5689 eV   74.83 nm  f=0.0178  <S**2>=0.000
       5 -> 13         0.63277
       6 -> 15         0.12629
       9 -> 19        -0.25730

 Excited State  29:      Singlet-A'    16.5759 eV   74.80 nm  f=0.0674  <S**2>=0.000
       5 -> 11         0.14328
       5 -> 14         0.12514
       7 -> 15        -0.10821
       8 -> 17         0.63780

 Excited State  30:      Singlet-A'    16.6496 eV   74.47 nm  f=0.0091  <S**2>=0.000
       5 -> 12         0.66786
       6 -> 16        -0.14898

 Excited State  31:      Singlet-A"    16.8610 eV   73.53 nm  f=0.0090  <S**2>=0.000
       5 -> 13        -0.17735
       6 -> 15         0.10444
       7 -> 16         0.47457
       9 -> 19        -0.45869

 Excited State  32:      Singlet-A"    16.9963 eV   72.95 nm  f=0.0753  <S**2>=0.000
       5 -> 13         0.20549
       7 -> 16         0.32582
       9 -> 18         0.49403
       9 -> 19         0.27509

 Excited State  33:      Singlet-A"    17.0233 eV   72.83 nm  f=0.1528  <S**2>=0.000
       7 -> 16        -0.38871
       9 -> 18         0.46399
       9 -> 19        -0.31197

 Excited State  34:      Singlet-A"    17.1726 eV   72.20 nm  f=0.0639  <S**2>=0.000
       6 -> 15         0.66447
       9 -> 19         0.13345

 Excited State  35:      Singlet-A'    17.2413 eV   71.91 nm  f=0.0425  <S**2>=0.000
       5 -> 14        -0.11829
       6 -> 13        -0.10471
       7 -> 15         0.64505
       7 -> 17         0.10328
       8 -> 17         0.12119

 Excited State  36:      Singlet-A'    17.3057 eV   71.64 nm  f=0.1062  <S**2>=0.000
       5 -> 14         0.62255
       6 -> 16         0.14464
       7 -> 15         0.15655
       7 -> 17        -0.10512
       9 -> 23        -0.12580

 Excited State  37:      Singlet-A'    17.5547 eV   70.63 nm  f=0.1043  <S**2>=0.000
       5 -> 12         0.11179
       5 -> 14        -0.15958
       6 -> 16         0.65248

 Excited State  38:      Singlet-A'    18.4931 eV   67.04 nm  f=0.0044  <S**2>=0.000
       7 -> 17        -0.12501
       7 -> 18         0.10067
       8 -> 17         0.11271
       8 -> 18         0.66147

 Excited State  39:      Singlet-A"    18.5502 eV   66.84 nm  f=0.0069  <S**2>=0.000
       9 -> 21         0.66723
       9 -> 22         0.11566
       9 -> 24         0.10518

 Excited State  40:      Singlet-A'    18.7695 eV   66.06 nm  f=0.0489  <S**2>=0.000
       7 -> 19         0.11480
       8 -> 19        -0.46200
       9 -> 20         0.46623
       9 -> 23         0.16770

 Excited State  41:      Singlet-A'    18.9662 eV   65.37 nm  f=0.0044  <S**2>=0.000
       4 -> 10        -0.26405
       5 -> 15         0.53708
       7 -> 17        -0.25073
       8 -> 19        -0.12539
       9 -> 20        -0.21210

 Excited State  42:      Singlet-A"    19.1479 eV   64.75 nm  f=0.0270  <S**2>=0.000
       6 -> 17         0.66433
       6 -> 18        -0.11622
       9 -> 22        -0.13663

 Excited State  43:      Singlet-A'    19.2996 eV   64.24 nm  f=0.0592  <S**2>=0.000
       4 -> 10         0.34368
       5 -> 15         0.35029
       7 -> 17         0.42916
       8 -> 21         0.11782

 Excited State  44:      Singlet-A'    19.4123 eV   63.87 nm  f=0.2596  <S**2>=0.000
       5 -> 15         0.24542
       7 -> 17        -0.11260
       8 -> 19         0.45063
       9 -> 20         0.43983

 Excited State  45:      Singlet-A"    19.4411 eV   63.77 nm  f=0.0039  <S**2>=0.000
       5 -> 16         0.67280
       9 -> 22         0.17675

 Excited State  46:      Singlet-A'    19.5062 eV   63.56 nm  f=0.0140  <S**2>=0.000
       4 -> 10         0.52501
       4 -> 11        -0.15228
       7 -> 17        -0.34610
       9 -> 23         0.13562

 Excited State  47:      Singlet-A"    19.7177 eV   62.88 nm  f=0.0060  <S**2>=0.000
       5 -> 16        -0.18141
       6 -> 17         0.10416
       8 -> 20        -0.16522
       9 -> 21        -0.12971
       9 -> 22         0.61551

 Excited State  48:      Singlet-A'    20.0442 eV   61.86 nm  f=0.0409  <S**2>=0.000
       4 -> 11        -0.12643
       8 -> 19         0.10487
       8 -> 21         0.46105
       8 -> 22         0.11212
       8 -> 24         0.11176
       9 -> 20        -0.11116
       9 -> 23         0.41960

 Excited State  49:      Singlet-A"    20.4787 eV   60.54 nm  f=0.0103  <S**2>=0.000
       8 -> 20         0.56706
       8 -> 23         0.13311
       9 -> 22         0.10132
       9 -> 24        -0.35418

 Excited State  50:      Singlet-A'    20.5193 eV   60.42 nm  f=0.0216  <S**2>=0.000
       4 -> 11         0.59649
       7 -> 19         0.11480
       8 -> 22         0.23163
       9 -> 23         0.13582

 Excited State  51:      Singlet-A'    20.8065 eV   59.59 nm  f=0.0231  <S**2>=0.000
       4 -> 11        -0.15409
       4 -> 12         0.16725
       5 -> 17        -0.17374
       7 -> 17         0.13239
       7 -> 18         0.41381
       7 -> 19         0.18405
       8 -> 21        -0.27005
       8 -> 22         0.20269
       9 -> 23         0.22726

 Excited State  52:      Singlet-A"    20.8388 eV   59.50 nm  f=0.1497  <S**2>=0.000
       6 -> 18        -0.13049
       8 -> 20         0.28099
       8 -> 23         0.18256
       9 -> 22         0.10467
       9 -> 24         0.56675

 Excited State  53:      Singlet-A'    21.0081 eV   59.02 nm  f=0.0135  <S**2>=0.000
       5 -> 17         0.42866
       7 -> 18         0.45666
       8 -> 21         0.23857

 Excited State  54:      Singlet-A"    21.2382 eV   58.38 nm  f=0.0060  <S**2>=0.000
       4 -> 13        -0.11481
       6 -> 17         0.12394
       6 -> 18         0.64927
       8 -> 23         0.13059

 Excited State  55:      Singlet-A'    21.4854 eV   57.71 nm  f=0.0251  <S**2>=0.000
       4 -> 11        -0.11004
       4 -> 12        -0.16505
       5 -> 17         0.34504
       6 -> 20         0.12225
       7 -> 17         0.10719
       7 -> 18        -0.18429
       7 -> 19         0.40556
       7 -> 22        -0.10014
       8 -> 19         0.10220
       8 -> 21        -0.12839
       8 -> 22         0.12016
       8 -> 24         0.16393

 Excited State  56:      Singlet-A'    21.5377 eV   57.57 nm  f=0.0300  <S**2>=0.000
       4 -> 12         0.62231
       5 -> 17         0.11485
       7 -> 18        -0.15105
       7 -> 19         0.12553
       8 -> 22        -0.18259

 Excited State  57:      Singlet-A"    21.5436 eV   57.55 nm  f=0.0045  <S**2>=0.000
       4 -> 13         0.18454
       6 -> 19        -0.13913
       7 -> 20        -0.12383
       8 -> 20        -0.15367
       8 -> 23         0.56888
       9 -> 25         0.23886

 Excited State  58:      Singlet-A"    21.6754 eV   57.20 nm  f=0.0015  <S**2>=0.000
       4 -> 13         0.54051
       6 -> 18         0.14390
       6 -> 19         0.12500
       8 -> 23        -0.21960
       9 -> 25         0.30252

 Excited State  59:      Singlet-A"    21.7263 eV   57.07 nm  f=0.0249  <S**2>=0.000
       4 -> 13        -0.37552
       9 -> 24         0.10289
       9 -> 25         0.57047

 Excited State  60:      Singlet-A'    21.8438 eV   56.76 nm  f=0.0061  <S**2>=0.000
       4 -> 12         0.16545
       4 -> 14         0.30659
       6 -> 20         0.13420
       7 -> 19        -0.33106
       8 -> 22         0.45475

 Excited State  61:      Singlet-A'    22.0500 eV   56.23 nm  f=0.1043  <S**2>=0.000
       4 -> 14         0.55671
       5 -> 17        -0.20340
       5 -> 18        -0.12403
       7 -> 18         0.13136
       7 -> 19         0.22178
       8 -> 21         0.12535
       8 -> 22        -0.14120

 Excited State  62:      Singlet-A"    22.0777 eV   56.16 nm  f=0.0074  <S**2>=0.000
       6 -> 18        -0.10458
       6 -> 19         0.64435
       6 -> 21         0.12609
       8 -> 20        -0.12809
       8 -> 23         0.12796

 Excited State  63:      Singlet-A'    22.5487 eV   54.99 nm  f=0.1091  <S**2>=0.000
       7 -> 19        -0.19917
       7 -> 21        -0.10309
       7 -> 22         0.13505
       8 -> 21        -0.18841
       8 -> 22        -0.18124
       8 -> 24         0.55241
       9 -> 23         0.10734

 Excited State  64:      Singlet-A'    22.7587 eV   54.48 nm  f=0.1696  <S**2>=0.000
       4 -> 14        -0.16360
       5 -> 17        -0.19249
       6 -> 20         0.13112
       7 -> 19         0.12385
       7 -> 21         0.28853
       8 -> 21         0.17996
       8 -> 22         0.17127
       8 -> 24         0.30545
       8 -> 25        -0.17236
       9 -> 23        -0.24254
       9 -> 26        -0.10062

 Excited State  65:      Singlet-A"    22.8684 eV   54.22 nm  f=0.0000  <S**2>=0.000
       7 -> 20         0.68228
       8 -> 23         0.12664

 Excited State  66:      Singlet-A'    23.1287 eV   53.61 nm  f=0.0635  <S**2>=0.000
       4 -> 14         0.12616
       7 -> 21         0.56262
       8 -> 25         0.31841
       9 -> 23         0.13070

 Excited State  67:      Singlet-A'    23.4172 eV   52.95 nm  f=0.0275  <S**2>=0.000
       4 -> 14         0.12797
       5 -> 18         0.47692
       6 -> 20        -0.17485
       7 -> 21         0.10533
       8 -> 25        -0.42183

 Excited State  68:      Singlet-A'    23.6451 eV   52.44 nm  f=0.0216  <S**2>=0.000
       4 -> 15        -0.16545
       5 -> 18        -0.30961
       5 -> 19         0.32551
       6 -> 20        -0.32289
       7 -> 21         0.14580
       7 -> 22        -0.28673
       8 -> 24         0.10445
       8 -> 25        -0.13871

 Excited State  69:      Singlet-A"    23.7361 eV   52.23 nm  f=0.0736  <S**2>=0.000
       6 -> 21         0.64065
       6 -> 22         0.22262

 Excited State  70:      Singlet-A'    23.7569 eV   52.19 nm  f=0.0439  <S**2>=0.000
       5 -> 18         0.24102
       5 -> 19         0.40664
       6 -> 20        -0.22204
       7 -> 21        -0.10719
       7 -> 22         0.18822
       7 -> 25        -0.12068
       8 -> 25         0.30520
       9 -> 26        -0.12759

 Excited State  71:      Singlet-A"    23.9747 eV   51.71 nm  f=0.0024  <S**2>=0.000
       4 -> 16        -0.36547
       6 -> 22         0.18521
       7 -> 23         0.55431

 Excited State  72:      Singlet-A'    24.0158 eV   51.63 nm  f=0.0116  <S**2>=0.000
       4 -> 15         0.12903
       5 -> 18        -0.23897
       5 -> 22         0.11183
       6 -> 20        -0.18616
       6 -> 23        -0.23584
       7 -> 22         0.46097
       7 -> 24         0.16558
       8 -> 25        -0.15323

 Excited State  73:      Singlet-A"    24.1848 eV   51.27 nm  f=0.0940  <S**2>=0.000
       4 -> 16         0.26810
       5 -> 20        -0.13462
       6 -> 21        -0.15449
       6 -> 22         0.59787
       6 -> 24        -0.10603

 Excited State  74:      Singlet-A'    24.2195 eV   51.19 nm  f=0.0201  <S**2>=0.000
       4 -> 15         0.61933
       5 -> 21         0.15314
       6 -> 20        -0.15479
       7 -> 22        -0.19806

 Excited State  75:      Singlet-A"    24.5257 eV   50.55 nm  f=0.0007  <S**2>=0.000
       4 -> 16         0.52795
       5 -> 20         0.15320
       6 -> 21         0.11544
       6 -> 22        -0.12526
       7 -> 23         0.39189

 Excited State  76:      Singlet-A'    24.6004 eV   50.40 nm  f=0.1650  <S**2>=0.000
       4 -> 15         0.18904
       4 -> 17         0.10421
       5 -> 19         0.34318
       5 -> 21        -0.19705
       5 -> 24        -0.11366
       6 -> 20         0.32595
       6 -> 23        -0.11147
       7 -> 21         0.10001
       7 -> 22         0.11483
       7 -> 24        -0.27984
       7 -> 25         0.10873

 Excited State  77:      Singlet-A"    25.0171 eV   49.56 nm  f=0.0003  <S**2>=0.000
       5 -> 20        -0.26440
       6 -> 24         0.64505

 Excited State  78:      Singlet-A'    25.0351 eV   49.52 nm  f=0.4484  <S**2>=0.000
       4 -> 17        -0.10019
       5 -> 19         0.11959
       5 -> 21        -0.10969
       5 -> 22         0.12933
       6 -> 23         0.52804
       7 -> 22         0.13594
       9 -> 26         0.33866

 Excited State  79:      Singlet-A'    25.1289 eV   49.34 nm  f=0.0750  <S**2>=0.000
       5 -> 19         0.15048
       5 -> 21         0.20916
       5 -> 25         0.10316
       6 -> 20         0.17976
       6 -> 23         0.12639
       7 -> 24         0.44528
       7 -> 25         0.16173
       9 -> 26        -0.28454

 Excited State  80:      Singlet-A'    25.4106 eV   48.79 nm  f=0.1382  <S**2>=0.000
       5 -> 21        -0.19275
       5 -> 22        -0.23942
       6 -> 23        -0.23319
       7 -> 22        -0.11046
       7 -> 24         0.34691
       9 -> 26         0.39184

 Excited State  81:      Singlet-A'    25.4431 eV   48.73 nm  f=0.1805  <S**2>=0.000
       4 -> 15        -0.11078
       4 -> 17         0.22217
       5 -> 19         0.12577
       5 -> 21         0.52630
       6 -> 20         0.10428
       7 -> 24        -0.10285
       9 -> 26         0.28668

 Excited State  82:      Singlet-A"    25.4439 eV   48.73 nm  f=0.0984  <S**2>=0.000
       5 -> 20         0.58019
       5 -> 23         0.14931
       6 -> 21        -0.10829
       6 -> 22         0.14101
       6 -> 24         0.24338
       7 -> 23        -0.10564
       8 -> 26         0.12067

 Excited State  83:      Singlet-A"    26.1784 eV   47.36 nm  f=0.0001  <S**2>=0.000
       5 -> 20        -0.11921
       5 -> 23         0.48258
       8 -> 26         0.30662
       9 -> 27         0.37931

 Excited State  84:      Singlet-A'    26.2948 eV   47.15 nm  f=0.0978  <S**2>=0.000
       4 -> 17         0.29391
       5 -> 21        -0.19948
       5 -> 22         0.54006
       7 -> 25        -0.20191

 Excited State  85:      Singlet-A"    26.3341 eV   47.08 nm  f=0.0507  <S**2>=0.000
       5 -> 20         0.13906
       5 -> 23        -0.27804
       8 -> 26        -0.22168
       9 -> 27         0.57480

 Excited State  86:      Singlet-A"    26.6574 eV   46.51 nm  f=0.0012  <S**2>=0.000
       5 -> 23        -0.38074
       8 -> 26         0.57770
       9 -> 28         0.10085

 Excited State  87:      Singlet-A'    26.7797 eV   46.30 nm  f=0.0058  <S**2>=0.000
       4 -> 17         0.37814
       4 -> 18        -0.11189
       5 -> 24         0.24275
       6 -> 26         0.11189
       7 -> 25         0.45776
       8 -> 25         0.13635

 Excited State  88:      Singlet-A'    26.9454 eV   46.01 nm  f=0.0240  <S**2>=0.000
       3 -> 10         0.13932
       4 -> 17        -0.31436
       5 -> 22         0.25341
       5 -> 24        -0.18041
       6 -> 23        -0.18015
       7 -> 25         0.36441
       8 -> 27        -0.12358

 Excited State  89:      Singlet-A"    27.1458 eV   45.67 nm  f=0.0468  <S**2>=0.000
       6 -> 25         0.64571
       9 -> 27         0.10972
       9 -> 28        -0.23776

 Excited State  90:      Singlet-A'    27.1995 eV   45.58 nm  f=0.0394  <S**2>=0.000
       4 -> 17        -0.17902
       4 -> 18         0.12768
       5 -> 22         0.14019
       5 -> 24         0.59699
       6 -> 20         0.12986

 Excited State  91:      Singlet-A"    27.2956 eV   45.42 nm  f=0.1761  <S**2>=0.000
       6 -> 25         0.23720
       7 -> 26        -0.10730
       9 -> 28         0.64215

 Excited State  92:      Singlet-A'    28.1133 eV   44.10 nm  f=0.1797  <S**2>=0.000
       3 -> 10        -0.17421
       4 -> 17         0.15033
       4 -> 18         0.55526
       5 -> 25        -0.20047
       8 -> 27         0.25597

 Excited State  93:      Singlet-A'    28.2595 eV   43.87 nm  f=0.0104  <S**2>=0.000
       3 -> 10         0.49672
       4 -> 18         0.22195
       5 -> 25         0.37827
       8 -> 27         0.15326

 Excited State  94:      Singlet-A'    28.6022 eV   43.35 nm  f=0.2406  <S**2>=0.000
       3 -> 10        -0.13892
       4 -> 18        -0.24510
       4 -> 19         0.21625
       8 -> 27         0.44970
       8 -> 28        -0.37438

 Excited State  95:      Singlet-A'    28.9343 eV   42.85 nm  f=0.3641  <S**2>=0.000

 The electronic state is 1-A'.
 Alpha  occ. eigenvalues --  -19.24614 -10.32199  -1.12307  -0.77967  -0.59893
 Alpha  occ. eigenvalues --   -0.52848  -0.51398  -0.42206  -0.36179
 Alpha virt. eigenvalues --    0.11154   0.15144   0.19668   0.19920   0.22058
 Alpha virt. eigenvalues --    0.29900   0.30809   0.39619   0.44642   0.47532
 Alpha virt. eigenvalues --    0.52632   0.53500   0.55787   0.58828   0.59276

 Mulliken charges:
               1
     1  C   -0.142344
     2  O   -0.481509
     3  H    0.096634
     4  H    0.096634
     5  H    0.116567
     6  H    0.314017
 Sum of Mulliken charges =   0.00000

 Dipole moment (field-independent basis, Debye):
    X=             -1.4389    Y=              0.9137    Z=              0.0000  Tot=              1.7045
 Quadrupole moment (field-independent basis, Debye-Ang):
   XX=            -11.6744   YY=            -13.2260   ZZ=            -13.7088
   XY=              2.1825   XZ=              0.0000   YZ=              0.0000

 Normal termination of Gaussian 16 at Sat Aug 14 06:20:40 2021.
