 Gaussian 16, Revision C.01,
 Gaussian 16:  EM64L-G16RevC.01  3-Jul-2019

 ----------------------------------------------------------------------
 #P TD(Nstates=10000) wB97XD/def2TZVP SCF(maxcycles=100) Int(Grid=ultra
 fine)
 ----------------------------------------------------------------------

 ---------------------
 xGDB7_00001_tier4.com
 ---------------------
 Symbolic Z-matrix:
 Charge =  0 Multiplicity = 1

                         Standard orientation:
 ---------------------------------------------------------------------
 Center     Atomic      Atomic             Coordinates (Angstroms)
 Number     Number       Type             X           Y           Z
 ---------------------------------------------------------------------
      1          6           0        0.000000    0.000000    0.660866
      2          6           0        0.000000    0.000000   -0.660866
      3          1           0        0.000000    0.922586    1.229258
      4          1           0       -0.000000   -0.922586    1.229258
      5          1           0        0.000000    0.922586   -1.229258
      6          1           0       -0.000000   -0.922586   -1.229258
 ---------------------------------------------------------------------

 SCF Done:  E(RwB97XD) =  -78.5890243542     A.U. after   11 cycles

 Excitation energies and oscillator strengths:

 Excited State   1:      Singlet-B1U    7.8550 eV  157.84 nm  f=0.3768  <S**2>=0.000
       8 ->  9         0.70090
 This state for optimization and/or second-order correction.
 Total Energy, E(TD-HF/TD-DFT) =  -78.3003594010
 Copying the excited state density for this state as the 1-particle RhoCI density.

 Excited State   2:      Singlet-B1G    8.1952 eV  151.29 nm  f=0.0000  <S**2>=0.000
       7 ->  9         0.70244

 Excited State   3:      Singlet-B3U    8.7147 eV  142.27 nm  f=0.0203  <S**2>=0.000
       8 -> 10         0.70331

 Excited State   4:      Singlet-B1G    9.2918 eV  133.43 nm  f=0.0000  <S**2>=0.000
       8 -> 11         0.70026

 Excited State   5:      Singlet-B2G    9.6308 eV  128.74 nm  f=0.0000  <S**2>=0.000
       6 ->  9         0.50476
       8 -> 12        -0.49172

 Excited State   6:      Singlet-B2G    9.8321 eV  126.10 nm  f=0.0000  <S**2>=0.000
       6 ->  9         0.48868
       8 -> 12         0.50541

 Excited State   7:      Singlet-B3G   10.8548 eV  114.22 nm  f=0.0000  <S**2>=0.000
       7 -> 10         0.69981

 Excited State   8:      Singlet-AU    11.3044 eV  109.68 nm  f=0.0000  <S**2>=0.000
       5 ->  9         0.58330
       8 -> 13        -0.39513

 Excited State   9:      Singlet-AU    11.4709 eV  108.09 nm  f=0.0000  <S**2>=0.000
       5 ->  9         0.39596
       8 -> 13         0.58285

 Excited State  10:      Singlet-B1U   11.7743 eV  105.30 nm  f=0.3320  <S**2>=0.000
       7 -> 11         0.69938

 Excited State  11:      Singlet-B2U   11.8109 eV  104.97 nm  f=0.3389  <S**2>=0.000
       5 -> 10         0.10184
       7 -> 12         0.69338

 Excited State  12:      Singlet-B3U   12.1070 eV  102.41 nm  f=0.0072  <S**2>=0.000
       8 -> 14         0.68015
       8 -> 15        -0.18846

 Excited State  13:      Singlet-AG    12.3925 eV  100.05 nm  f=0.0000  <S**2>=0.000
       5 -> 11        -0.12851
       6 -> 10         0.26246
       7 -> 13         0.19764
       8 -> 16         0.60846

 Excited State  14:      Singlet-B3U   12.3943 eV  100.03 nm  f=0.4517  <S**2>=0.000
       4 ->  9        -0.13358
       8 -> 14         0.18852
       8 -> 15         0.66548

 Excited State  15:      Singlet-B2G   12.9143 eV   96.01 nm  f=0.0000  <S**2>=0.000
       8 -> 17         0.70491

 Excited State  16:      Singlet-AG    13.0457 eV   95.04 nm  f=0.0000  <S**2>=0.000
       6 -> 10         0.63420
       7 -> 13        -0.23216
       8 -> 16        -0.17732

 Excited State  17:      Singlet-B2U   13.4083 eV   92.47 nm  f=0.1068  <S**2>=0.000
       6 -> 11         0.69170

 Excited State  18:      Singlet-B1U   13.6491 eV   90.84 nm  f=0.3415  <S**2>=0.000
       6 -> 12         0.69809

 Excited State  19:      Singlet-B1G   13.6887 eV   90.57 nm  f=0.0000  <S**2>=0.000
       8 -> 18         0.70637

 Excited State  20:      Singlet-B3G   14.0961 eV   87.96 nm  f=0.0000  <S**2>=0.000
       5 -> 12        -0.27469
       7 -> 14         0.54812
       7 -> 15        -0.33147

 Excited State  21:      Singlet-AG    14.1458 eV   87.65 nm  f=0.0000  <S**2>=0.000
       6 -> 10         0.14328
       6 -> 14         0.14701
       7 -> 13         0.62237
       8 -> 16        -0.24332

 Excited State  22:      Singlet-B2U   14.3740 eV   86.26 nm  f=0.3502  <S**2>=0.000
       5 -> 10         0.69315
       7 -> 12        -0.10167

 Excited State  23:      Singlet-B3G   14.5726 eV   85.08 nm  f=0.0000  <S**2>=0.000
       7 -> 14         0.33962
       7 -> 15         0.61361

 Excited State  24:      Singlet-AU    14.6859 eV   84.42 nm  f=0.0000  <S**2>=0.000
       7 -> 16         0.70362

 Excited State  25:      Singlet-B3G   15.2264 eV   81.43 nm  f=0.0000  <S**2>=0.000
       4 -> 11        -0.11681
       5 -> 12         0.23614
       6 -> 13         0.62144
       7 -> 14         0.17582

 Excited State  26:      Singlet-AG    15.2932 eV   81.07 nm  f=0.0000  <S**2>=0.000
       4 -> 12         0.10004
       5 -> 11         0.61632
       6 -> 14        -0.26450
       6 -> 15         0.14959

 Excited State  27:      Singlet-B1U   15.3578 eV   80.73 nm  f=0.0687  <S**2>=0.000
       5 -> 13         0.12047
       6 -> 17        -0.10652
       8 -> 19         0.66471

 Excited State  28:      Singlet-B2U   15.3760 eV   80.64 nm  f=0.3322  <S**2>=0.000
       7 -> 17         0.68268

 Excited State  29:      Singlet-B3U   15.4267 eV   80.37 nm  f=0.3116  <S**2>=0.000
       4 ->  9         0.67826
       6 -> 16        -0.10221
       8 -> 15         0.12204

 Excited State  30:      Singlet-B3G   15.4693 eV   80.15 nm  f=0.0000  <S**2>=0.000
       5 -> 12         0.59765
       6 -> 13        -0.28579
       7 -> 14         0.21237

 Excited State  31:      Singlet-B2G   15.8175 eV   78.38 nm  f=0.0000  <S**2>=0.000
       8 -> 20         0.70402

 Excited State  32:      Singlet-AG    16.1626 eV   76.71 nm  f=0.0000  <S**2>=0.000
       6 -> 14         0.44835
       6 -> 15         0.53542

 Excited State  33:      Singlet-B3U   16.5514 eV   74.91 nm  f=0.1080  <S**2>=0.000
       6 -> 16         0.69583

 Excited State  34:      Singlet-B1U   16.5604 eV   74.87 nm  f=0.1640  <S**2>=0.000
       5 -> 13         0.24711
       6 -> 17        -0.26476
       7 -> 18         0.59621

 Excited State  35:      Singlet-AG    16.9949 eV   72.95 nm  f=0.0000  <S**2>=0.000
       5 -> 11         0.27732
       6 -> 14         0.43876
       6 -> 15        -0.42203
       8 -> 16         0.14287

 Excited State  36:      Singlet-B1G   17.0563 eV   72.69 nm  f=0.0000  <S**2>=0.000
       5 -> 16         0.36540
       7 -> 19         0.60304

 Excited State  37:      Singlet-B1U   17.0729 eV   72.62 nm  f=0.2812  <S**2>=0.000
       5 -> 13         0.44313
       6 -> 17         0.53705

 Excited State  38:      Singlet-B1U   17.3225 eV   71.57 nm  f=0.1733  <S**2>=0.000
       4 -> 10        -0.33715
       5 -> 13         0.40643
       6 -> 17        -0.29478
       7 -> 18        -0.31212
       8 -> 19        -0.11182

 Excited State  39:      Singlet-B2U   17.5407 eV   70.68 nm  f=0.0000  <S**2>=0.000
       5 -> 14         0.10364
       5 -> 15         0.63262
       7 -> 20         0.27515

 Excited State  40:      Singlet-B2U   17.7507 eV   69.85 nm  f=0.0032  <S**2>=0.000
       5 -> 14         0.57501
       5 -> 15        -0.19144
       6 -> 18        -0.31000
       7 -> 17         0.10723
       7 -> 20         0.13237

 Excited State  41:      Singlet-B1G   17.9587 eV   69.04 nm  f=0.0000  <S**2>=0.000
       8 -> 21         0.69751

 Excited State  42:      Singlet-B1U   17.9668 eV   69.01 nm  f=0.0331  <S**2>=0.000
       4 -> 10         0.59490
       4 -> 14         0.11021
       5 -> 13         0.20335
       6 -> 17        -0.14298
       6 -> 20         0.14204
       8 -> 19        -0.15934

 Excited State  43:      Singlet-B3G   18.0929 eV   68.53 nm  f=0.0000  <S**2>=0.000
       4 -> 11         0.68591
       6 -> 13         0.14031

 Excited State  44:      Singlet-B1G   18.2967 eV   67.76 nm  f=0.0000  <S**2>=0.000
       5 -> 16         0.59889
       7 -> 19        -0.36478

 Excited State  45:      Singlet-B2U   18.3120 eV   67.71 nm  f=0.0847  <S**2>=0.000
       5 -> 14         0.31675
       6 -> 18         0.60115
       8 -> 25         0.13150

 Excited State  46:      Singlet-B2U   18.5127 eV   66.97 nm  f=0.0004  <S**2>=0.000
       5 -> 14        -0.18411
       5 -> 15        -0.23735
       7 -> 20         0.63307

 Excited State  47:      Singlet-AG    18.6417 eV   66.51 nm  f=0.0000  <S**2>=0.000
       4 -> 12         0.68275

 Excited State  48:      Singlet-B3G   18.6424 eV   66.51 nm  f=0.0000  <S**2>=0.000
       5 -> 17         0.69606

 Excited State  49:      Singlet-B2G   18.8774 eV   65.68 nm  f=0.0000  <S**2>=0.000
       3 ->  9         0.20026
       4 -> 16         0.15163
       6 -> 19         0.63437
       8 -> 22         0.16712

 Excited State  50:      Singlet-B2G   19.1811 eV   64.64 nm  f=0.0000  <S**2>=0.000
       3 ->  9         0.27681
       6 -> 19        -0.23123
       8 -> 22         0.60009

 Excited State  51:      Singlet-B3U   19.3248 eV   64.16 nm  f=0.0316  <S**2>=0.000
       8 -> 23         0.69637

 Excited State  52:      Singlet-AG    19.5643 eV   63.37 nm  f=0.0000  <S**2>=0.000
       5 -> 18         0.69807

 Excited State  53:      Singlet-AU    19.9295 eV   62.21 nm  f=0.0000  <S**2>=0.000
       8 -> 24         0.70082

 Excited State  54:      Singlet-B2U   20.0409 eV   61.87 nm  f=0.0844  <S**2>=0.000
       4 -> 13         0.64762
       8 -> 25        -0.23981

 Excited State  55:      Singlet-B2G   20.1374 eV   61.57 nm  f=0.0000  <S**2>=0.000
       3 ->  9         0.59575
       6 -> 19        -0.12674
       7 -> 25        -0.12147
       8 -> 22        -0.31946

 Excited State  56:      Singlet-B1U   20.1851 eV   61.42 nm  f=0.0445  <S**2>=0.000
       4 -> 14        -0.10043
       4 -> 15         0.31914
       6 -> 20         0.49262
       7 -> 21        -0.34673

 Excited State  57:      Singlet-AU    20.7037 eV   59.89 nm  f=0.0000  <S**2>=0.000
       5 -> 19         0.69901

 Excited State  58:      Singlet-B1U   20.7179 eV   59.84 nm  f=0.1156  <S**2>=0.000
       4 -> 14         0.21190
       4 -> 15        -0.23767
       6 -> 20         0.45587
       7 -> 18         0.12058
       7 -> 21         0.39706

 Excited State  59:      Singlet-B1U   20.9878 eV   59.07 nm  f=0.0680  <S**2>=0.000
       4 -> 14         0.62324
       4 -> 15         0.25552
       6 -> 17         0.10713
       6 -> 20        -0.12070

 Excited State  60:      Singlet-B1U   21.1175 eV   58.71 nm  f=0.1389  <S**2>=0.000
       4 -> 14        -0.14931
       4 -> 15         0.51814
       7 -> 21         0.44271

 Excited State  61:      Singlet-B2U   21.1641 eV   58.58 nm  f=0.1250  <S**2>=0.000
       4 -> 13         0.24859
       6 -> 21         0.22816
       7 -> 22        -0.23211
       8 -> 25         0.54360

 Excited State  62:      Singlet-B2G   21.2798 eV   58.26 nm  f=0.0000  <S**2>=0.000
       4 -> 16         0.66964
       6 -> 19        -0.15049
       8 -> 26        -0.12813

 Excited State  63:      Singlet-B3G   21.5305 eV   57.59 nm  f=0.0000  <S**2>=0.000
       5 -> 20         0.66512
       7 -> 23         0.22823

 Excited State  64:      Singlet-B2G   21.6620 eV   57.24 nm  f=0.0000  <S**2>=0.000
       4 -> 16         0.11067
       7 -> 25         0.10083
       8 -> 26         0.68287

 Excited State  65:      Singlet-AG    21.7403 eV   57.03 nm  f=0.0000  <S**2>=0.000
       4 -> 17         0.69144

 Excited State  66:      Singlet-B2U   21.8795 eV   56.67 nm  f=0.1116  <S**2>=0.000
       6 -> 21         0.38566
       7 -> 22         0.57267

 Excited State  67:      Singlet-B3G   21.9059 eV   56.60 nm  f=0.0000  <S**2>=0.000
       4 -> 18         0.22418
       5 -> 20        -0.21784
       7 -> 23         0.62149

 Excited State  68:      Singlet-AG    22.3786 eV   55.40 nm  f=0.0000  <S**2>=0.000
       3 -> 10         0.65378
       6 -> 23         0.12065
       7 -> 24         0.21328

 Excited State  69:      Singlet-B2U   22.5613 eV   54.95 nm  f=0.3933  <S**2>=0.000
       5 -> 23         0.14170
       6 -> 21         0.49083
       7 -> 22        -0.27494
       7 -> 26        -0.29946
       8 -> 25        -0.22495

 Excited State  70:      Singlet-AG    22.7805 eV   54.43 nm  f=0.0000  <S**2>=0.000
       3 -> 10        -0.11797
       6 -> 23        -0.36866
       7 -> 24         0.57448

 Excited State  71:      Singlet-B3G   22.9316 eV   54.07 nm  f=0.0000  <S**2>=0.000
       4 -> 18         0.64551
       6 -> 24         0.13619
       7 -> 23        -0.20492

 Excited State  72:      Singlet-B2U   23.3283 eV   53.15 nm  f=0.0242  <S**2>=0.000
       3 -> 11         0.65467
       7 -> 22         0.10397
       7 -> 26        -0.22473

 Excited State  73:      Singlet-B2G   23.3617 eV   53.07 nm  f=0.0000  <S**2>=0.000
       3 ->  9         0.12044
       7 -> 25         0.68260

 Excited State  74:      Singlet-B1U   23.3855 eV   53.02 nm  f=0.1355  <S**2>=0.000
       3 -> 12         0.41931
       6 -> 22         0.54861

 Excited State  75:      Singlet-AU    23.5591 eV   52.63 nm  f=0.0000  <S**2>=0.000
       8 -> 27         0.70423

 Excited State  76:      Singlet-B1U   23.5708 eV   52.60 nm  f=0.1493  <S**2>=0.000
       3 -> 12         0.54672
       6 -> 22        -0.42772

 Excited State  77:      Singlet-AG    23.5849 eV   52.57 nm  f=0.0000  <S**2>=0.000
       3 -> 10        -0.17161
       5 -> 21         0.41181
       6 -> 23         0.46620
       7 -> 24         0.26173

 Excited State  78:      Singlet-B3U   23.8989 eV   51.88 nm  f=0.0672  <S**2>=0.000
       4 -> 19         0.69343

 Excited State  79:      Singlet-B3G   24.0570 eV   51.54 nm  f=0.0000  <S**2>=0.000
       4 -> 18        -0.12374
       6 -> 24         0.67475

 Excited State  80:      Singlet-AG    24.4828 eV   50.64 nm  f=0.0000  <S**2>=0.000
       3 -> 10         0.13253
       5 -> 21         0.52325
       6 -> 23        -0.32055
       7 -> 24        -0.15262
       7 -> 27        -0.17854

 Excited State  81:      Singlet-B1G   24.5062 eV   50.59 nm  f=0.0000  <S**2>=0.000
       6 -> 25         0.70583

 Excited State  82:      Singlet-AG    24.7118 eV   50.17 nm  f=0.0000  <S**2>=0.000
       4 -> 20         0.66009
       8 -> 28         0.19469

 Excited State  83:      Singlet-B2U   24.7632 eV   50.07 nm  f=0.0563  <S**2>=0.000
       3 -> 11         0.16920
       5 -> 23         0.40382
       6 -> 21         0.10301
       7 -> 22        -0.10862
       7 -> 26         0.51619
       8 -> 25        -0.10851

 Excited State  84:      Singlet-B3G   24.9223 eV   49.75 nm  f=0.0000  <S**2>=0.000
       3 -> 13         0.21546
       5 -> 22         0.65465

 Excited State  85:      Singlet-B3G   25.2533 eV   49.10 nm  f=0.0000  <S**2>=0.000
       3 -> 13         0.65566
       5 -> 22        -0.21953

 Excited State  86:      Singlet-B1U   25.6064 eV   48.42 nm  f=0.1233  <S**2>=0.000
       3 -> 17         0.11741
       5 -> 24         0.63305
       6 -> 26         0.27391

 Excited State  87:      Singlet-B2U   25.6581 eV   48.32 nm  f=1.0511  <S**2>=0.000
       3 -> 11        -0.11134
       5 -> 23         0.54763
       6 -> 21        -0.18099
       7 -> 26        -0.27274
       8 -> 25         0.21082

 Excited State  88:      Singlet-AG    25.8985 eV   47.87 nm  f=0.0000  <S**2>=0.000
       3 -> 14         0.39625
       3 -> 15        -0.36709
       4 -> 20        -0.13395
       8 -> 28         0.41983

 Excited State  89:      Singlet-AG    26.0038 eV   47.68 nm  f=0.0000  <S**2>=0.000
       3 -> 14         0.47941
       3 -> 15         0.49322
       4 -> 20        -0.10955

 Excited State  90:      Singlet-B3U   26.1790 eV   47.36 nm  f=0.1840  <S**2>=0.000
       3 -> 16         0.61652
       4 -> 19        -0.10123
       5 -> 25         0.32599

 Excited State  91:      Singlet-AG    26.2791 eV   47.18 nm  f=0.0000  <S**2>=0.000
       3 -> 14        -0.26771
       3 -> 15         0.21214
       4 -> 20        -0.12323
       7 -> 27         0.48586
       8 -> 28         0.34123

 Excited State  92:      Singlet-B1U   26.7929 eV   46.27 nm  f=0.0055  <S**2>=0.000
       3 -> 17         0.69054
       6 -> 26        -0.10237

 Excited State  93:      Singlet-B3U   26.7991 eV   46.26 nm  f=0.1003  <S**2>=0.000
       3 -> 16        -0.31402
       5 -> 25         0.55646
       6 -> 28        -0.14233
       8 -> 30         0.24922

 Excited State  94:      Singlet-B3G   26.8645 eV   46.15 nm  f=0.0000  <S**2>=0.000
       4 -> 21         0.61691
       6 -> 27         0.10380
       8 -> 29         0.27733

 Excited State  95:      Singlet-AG    26.9500 eV   46.01 nm  f=0.0000  <S**2>=0.000
       3 -> 14         0.15461
       3 -> 15        -0.21937
       4 -> 22         0.30135
       4 -> 26         0.10010
       5 -> 21         0.10382
       7 -> 27         0.40922
       8 -> 28        -0.33725

 Excited State  96:      Singlet-B3G   27.0857 eV   45.77 nm  f=0.0000  <S**2>=0.000
       4 -> 21        -0.26957
       5 -> 26         0.48266
       8 -> 29         0.42660

 Excited State  97:      Singlet-B1U   27.4582 eV   45.15 nm  f=0.3747  <S**2>=0.000
       4 -> 23         0.34729
       5 -> 24        -0.23050
       6 -> 26         0.53315

 Excited State  98:      Singlet-B2U   27.5924 eV   44.93 nm  f=0.0652  <S**2>=0.000
       3 -> 18         0.70024

 Excited State  99:      Singlet-B3G   27.6543 eV   44.83 nm  f=0.0000  <S**2>=0.000
       4 -> 21        -0.15553
       5 -> 26        -0.39288
       6 -> 27         0.47491
       8 -> 29         0.28659

 Excited State 100:      Singlet-AU    27.9178 eV   44.41 nm  f=0.0000  <S**2>=0.000
       7 -> 28         0.70139

 Excited State 101:      Singlet-B3U   28.0455 eV   44.21 nm  f=0.0517  <S**2>=0.000
       5 -> 25        -0.17676
       6 -> 28         0.19165
       8 -> 30         0.64240

 Excited State 102:      Singlet-B3G   28.2851 eV   43.83 nm  f=0.0000  <S**2>=0.000
       5 -> 26         0.30299
       6 -> 27         0.50145
       8 -> 29        -0.36940

 Excited State 103:      Singlet-B1U   28.5422 eV   43.44 nm  f=0.0453  <S**2>=0.000
       4 -> 23         0.56659
       5 -> 24         0.13571
       5 -> 27         0.28742
       6 -> 26        -0.22540

 Excited State 104:      Singlet-AG    28.9050 eV   42.89 nm  f=0.0000  <S**2>=0.000
       4 -> 22         0.61572
       5 -> 21        -0.12777
       6 -> 30         0.13613
       7 -> 27        -0.19836
       8 -> 28         0.12406

 Excited State 105:      Singlet-B2U   28.9329 eV   42.85 nm  f=0.0376  <S**2>=0.000
       4 -> 24         0.69786

 Excited State 106:      Singlet-B2G   28.9860 eV   42.77 nm  f=0.0000  <S**2>=0.000
       3 -> 19         0.70150

 Excited State 107:      Singlet-AU    29.3933 eV   42.18 nm  f=0.0000  <S**2>=0.000
       4 -> 25         0.68687
       6 -> 29         0.14667

 Excited State 108:      Singlet-B3U   29.5334 eV   41.98 nm  f=0.0132  <S**2>=0.000
       6 -> 28        -0.42528
       7 -> 29         0.55329

 Excited State 109:      Singlet-B1U   29.7687 eV   41.65 nm  f=0.0144  <S**2>=0.000
       3 -> 20         0.63727
       5 -> 27        -0.29302

 Excited State 110:      Singlet-B1U   29.8289 eV   41.57 nm  f=0.0016  <S**2>=0.000
       3 -> 20         0.28365
       4 -> 23        -0.21829
       5 -> 27         0.56058
       6 -> 26         0.15795

 Excited State 111:      Singlet-B3U   29.8687 eV   41.51 nm  f=0.0624  <S**2>=0.000
       6 -> 28        -0.26184
       7 -> 29        -0.25900
       8 -> 31         0.60083

 Excited State 112:      Singlet-B3G   30.2311 eV   41.01 nm  f=0.0000  <S**2>=0.000
       7 -> 30         0.70337

 Excited State 113:      Singlet-AG    31.0095 eV   39.98 nm  f=0.0000  <S**2>=0.000
       4 -> 26         0.68894

 Excited State 114:      Singlet-B1G   31.0859 eV   39.88 nm  f=0.0000  <S**2>=0.000
       5 -> 28         0.70418

 Excited State 115:      Singlet-AU    31.1914 eV   39.75 nm  f=0.0000  <S**2>=0.000
       4 -> 25        -0.14657
       6 -> 29         0.69065

 Excited State 116:      Singlet-B2U   32.0244 eV   38.72 nm  f=0.0146  <S**2>=0.000
       3 -> 21         0.68828
       5 -> 30        -0.13449

 Excited State 117:      Singlet-B1G   32.1040 eV   38.62 nm  f=0.0000  <S**2>=0.000
       8 -> 32         0.70597

 Excited State 118:      Singlet-AG    32.1168 eV   38.60 nm  f=0.0000  <S**2>=0.000
       3 -> 23         0.15558
       6 -> 30         0.66102
       6 -> 31        -0.13724

 Excited State 119:      Singlet-B2U   32.5836 eV   38.05 nm  f=0.0449  <S**2>=0.000
       4 -> 27         0.69963

 Excited State 120:      Singlet-B3U   32.6372 eV   37.99 nm  f=2.0256  <S**2>=0.000
       5 -> 25         0.18072
       6 -> 28         0.43635
       7 -> 29         0.34339
       8 -> 30        -0.14374
       8 -> 31         0.34915

 Excited State 121:      Singlet-B3G   32.6464 eV   37.98 nm  f=0.0000  <S**2>=0.000
       7 -> 31         0.70361

 Excited State 122:      Singlet-B2G   32.9432 eV   37.64 nm  f=0.0000  <S**2>=0.000
       4 -> 28        -0.18360
       5 -> 29         0.67337

 Excited State 123:      Singlet-AG    33.0670 eV   37.49 nm  f=0.0000  <S**2>=0.000
       3 -> 23         0.68377
       6 -> 30        -0.13661

 Excited State 124:      Singlet-B1U   33.2234 eV   37.32 nm  f=0.0008  <S**2>=0.000
       3 -> 22         0.67118
       7 -> 32        -0.16254

 Excited State 125:      Singlet-B3G   33.8960 eV   36.58 nm  f=0.0000  <S**2>=0.000
       3 -> 24         0.70084

 Excited State 126:      Singlet-B2U   34.0696 eV   36.39 nm  f=0.0825  <S**2>=0.000
       3 -> 21         0.12501
       5 -> 30         0.67169
       6 -> 32         0.12157

 Excited State 127:      Singlet-B1G   34.4879 eV   35.95 nm  f=0.0000  <S**2>=0.000
       3 -> 25         0.70567

 Excited State 128:      Singlet-B2G   34.6471 eV   35.78 nm  f=0.0000  <S**2>=0.000
       4 -> 28         0.53010
       8 -> 33        -0.45703

 Excited State 129:      Singlet-B1U   35.1256 eV   35.30 nm  f=0.1120  <S**2>=0.000
       3 -> 22         0.12541
       3 -> 26        -0.25688
       7 -> 32         0.62890

 Excited State 130:      Singlet-B2G   35.3225 eV   35.10 nm  f=0.0000  <S**2>=0.000
       4 -> 28         0.42432
       5 -> 29         0.18205
       8 -> 33         0.53004

 Excited State 131:      Singlet-AG    35.4413 eV   34.98 nm  f=0.0000  <S**2>=0.000
       5 -> 32        -0.12245
       6 -> 30         0.11651
       6 -> 31         0.65251
       7 -> 34         0.14815

 Excited State 132:      Singlet-B1U   35.7561 eV   34.68 nm  f=0.1892  <S**2>=0.000
       3 -> 26         0.52184

 The electronic state is 1-AG.
 Alpha  occ. eigenvalues --  -10.28322 -10.28223  -0.86381  -0.67396  -0.56078
 Alpha  occ. eigenvalues --   -0.50849  -0.43835  -0.36036
 Alpha virt. eigenvalues --    0.07338   0.14665   0.16854   0.17186   0.22971
 Alpha virt. eigenvalues --    0.27317   0.28509   0.29737   0.30130   0.35024
 Alpha virt. eigenvalues --    0.39537   0.42100   0.49639   0.53735   0.54180

 Mulliken charges:
               1
     1  C   -0.251711
     2  C   -0.251711
     3  H    0.125856
     4  H    0.125856
     5  H    0.125856
     6  H    0.125856
 Sum of Mulliken charges =  -0.00000

 Dipole moment (field-independent basis, Debye):
    X=             -0.0000    Y=              0.0000    Z=              0.0000  Tot=              0.0000
 Quadrupole moment (field-independent basis, Debye-Ang):
   XX=            -15.6023   YY=            -12.2141   ZZ=            -12.1715
   XY=              0.0000   XZ=              0.0000   YZ=             -0.0000

 1\1\GINC-HEL20\SP\RwB97XD TD-FC\def2TZVP\C2H4\PRAKRITI\14-Aug-2021\0\\
 #P TD(Nstates=10000) wB97XD/def2TZVP SCF(maxcycles=100) Int(Grid=ultra
 fine)\\xGDB7_00001_tier4.com\\0,1\C,0,0.,0.,0.660866\C,0,0.,0.,-0.6608
 66\H,0,0.,0.922586,1.229258\H,0,0.,-0.922586,1.229258\H,0,0.,0.922586,
 -1.229258\H,0,0.,-0.922586,-1.229258\\Version=EM64L-G16RevC.01\State=1
 -AG\HF=-78.5890244\RMSD=2.974e-09\PG=D02H [C2"(C1.C1),SG(H4)]\\@
 The archive entry for this job was punched.

 Normal termination of Gaussian 16 at Sat Aug 14 06:20:36 2021.
