 Gaussian 16, Revision C.01,
 Gaussian 16:  EM64L-G16RevC.01  3-Jul-2019

 ----------------------------------------------------------------------
 #P TD(Nstates=10000) wB97XD/def2TZVP SCF(maxcycles=100) Int(Grid=ultra
 fine)
 ----------------------------------------------------------------------

 ---------------------
 xGDB7_00001_tier4.com
 ---------------------
 Symbolic Z-matrix:
 Charge =  0 Multiplicity = 1

                         Standard orientation:
 ---------------------------------------------------------------------
 Center     Atomic      Atomic             Coordinates (Angstroms)
 Number     Number       Type             X           Y           Z
 ---------------------------------------------------------------------
      1          6           0        0.926251   -0.719055    0.000000
      2          6           0        0.000000    0.459276    0.000000
      3          8           0       -1.196998    0.387136    0.000000
      4          1           0        1.575965   -0.668678    0.877698
      5          1           0        1.575965   -0.668678   -0.877698
      6          1           0        0.366733   -1.652236    0.000000
      7          1           0        0.499813    1.451182    0.000000
 ---------------------------------------------------------------------

 SCF Done:  E(RwB97XD) =  -153.842339592     A.U. after   14 cycles

 Excitation energies and oscillator strengths:

 Excited State   1:      Singlet-A"     4.3841 eV  282.81 nm  f=0.0001  <S**2>=0.000
      12 -> 13         0.70467
 This state for optimization and/or second-order correction.
 Total Energy, E(TD-HF/TD-DFT) =  -153.681228056
 Copying the excited state density for this state as the 1-particle RhoCI density.

 Excited State   2:      Singlet-A'     8.2631 eV  150.04 nm  f=0.0145  <S**2>=0.000
      11 -> 13        -0.15236
      12 -> 14         0.64199
      12 -> 15         0.20926
      12 -> 18        -0.12417

 Excited State   3:      Singlet-A"     8.9332 eV  138.79 nm  f=0.0007  <S**2>=0.000
       7 -> 13         0.14023
       9 -> 13        -0.15988
      10 -> 13         0.67145

 Excited State   4:      Singlet-A'     8.9481 eV  138.56 nm  f=0.1575  <S**2>=0.000
      12 -> 14        -0.21187
      12 -> 15         0.66612

 Excited State   5:      Singlet-A'     9.2834 eV  133.55 nm  f=0.1843  <S**2>=0.000
      11 -> 13         0.59235
      12 -> 17         0.27302
      12 -> 18        -0.21830

 Excited State   6:      Singlet-A"     9.6607 eV  128.34 nm  f=0.0036  <S**2>=0.000
       9 -> 13         0.66578
      10 -> 13         0.15231
      12 -> 16        -0.14946

 Excited State   7:      Singlet-A'     9.7015 eV  127.80 nm  f=0.0548  <S**2>=0.000
      11 -> 13        -0.27869
      12 -> 14        -0.10542
      12 -> 17         0.60436
      12 -> 19        -0.13335

 Excited State   8:      Singlet-A"     9.7947 eV  126.58 nm  f=0.0132  <S**2>=0.000
       9 -> 13         0.15226
      12 -> 16         0.68317

 Excited State   9:      Singlet-A'    10.4035 eV  119.18 nm  f=0.0841  <S**2>=0.000
      12 -> 14         0.12130
      12 -> 17         0.21655
      12 -> 18         0.61195
      12 -> 19         0.18733

 Excited State  10:      Singlet-A"    10.9998 eV  112.72 nm  f=0.0312  <S**2>=0.000
       7 -> 13         0.19584
       8 -> 14        -0.11787
      11 -> 14         0.65342

 Excited State  11:      Singlet-A"    11.0513 eV  112.19 nm  f=0.0165  <S**2>=0.000
       7 -> 13         0.65115
      10 -> 13        -0.15124
      11 -> 14        -0.19760

 Excited State  12:      Singlet-A'    11.1387 eV  111.31 nm  f=0.0371  <S**2>=0.000
       8 -> 13         0.62126
      10 -> 14        -0.12920
      12 -> 18         0.11794
      12 -> 19        -0.21167

 Excited State  13:      Singlet-A'    11.5059 eV  107.76 nm  f=0.1550  <S**2>=0.000
       8 -> 13         0.25253
      12 -> 18        -0.16583
      12 -> 19         0.62105

 Excited State  14:      Singlet-A'    11.6478 eV  106.44 nm  f=0.2027  <S**2>=0.000
       8 -> 13         0.11347
      10 -> 14         0.67327

 Excited State  15:      Singlet-A"    11.8473 eV  104.65 nm  f=0.0208  <S**2>=0.000
       8 -> 14         0.12039
      11 -> 15         0.68700

 Excited State  16:      Singlet-A"    12.3414 eV  100.46 nm  f=0.0069  <S**2>=0.000
      12 -> 20         0.64418
      12 -> 22         0.28317

 Excited State  17:      Singlet-A"    12.5117 eV   99.09 nm  f=0.0060  <S**2>=0.000
      10 -> 16         0.10797
      11 -> 17         0.66818
      11 -> 18        -0.11344

 Excited State  18:      Singlet-A'    12.6027 eV   98.38 nm  f=0.1201  <S**2>=0.000
      10 -> 15         0.33840
      11 -> 16         0.59088

 Excited State  19:      Singlet-A'    12.8199 eV   96.71 nm  f=0.2214  <S**2>=0.000
      10 -> 15         0.58683
      11 -> 16        -0.35343

 Excited State  20:      Singlet-A"    12.9162 eV   95.99 nm  f=0.3051  <S**2>=0.000
       8 -> 14         0.53597
      10 -> 16         0.13390
      11 -> 17        -0.12049
      11 -> 18        -0.38357

 Excited State  21:      Singlet-A"    13.0188 eV   95.23 nm  f=0.0072  <S**2>=0.000
       8 -> 14        -0.12383
      10 -> 16         0.66234

 Excited State  22:      Singlet-A'    13.2460 eV   93.60 nm  f=0.0104  <S**2>=0.000
       9 -> 14         0.64365
      10 -> 17        -0.12363
      12 -> 21         0.16277

 Excited State  23:      Singlet-A"    13.2801 eV   93.36 nm  f=0.0000  <S**2>=0.000
      12 -> 20        -0.27708
      12 -> 22         0.62601

 Excited State  24:      Singlet-A'    13.3292 eV   93.02 nm  f=0.0857  <S**2>=0.000
       9 -> 14        -0.19627
      10 -> 17        -0.34422
      12 -> 21         0.53587
      12 -> 23         0.16889

 Excited State  25:      Singlet-A'    13.4284 eV   92.33 nm  f=0.0708  <S**2>=0.000
       9 -> 18         0.10126
      10 -> 17         0.56296
      12 -> 21         0.37430

 Excited State  26:      Singlet-A"    13.4642 eV   92.08 nm  f=0.0000  <S**2>=0.000
       8 -> 14         0.37026
       8 -> 17        -0.11729
      11 -> 14         0.12204
      11 -> 18         0.54360
      12 -> 22        -0.10224

 Excited State  27:      Singlet-A'    13.6729 eV   90.68 nm  f=0.0280  <S**2>=0.000
      10 -> 17         0.10852
      12 -> 21        -0.14719
      12 -> 23         0.65023

 Excited State  28:      Singlet-A"    13.7939 eV   89.88 nm  f=0.0055  <S**2>=0.000
       8 -> 15         0.50246
      11 -> 19        -0.45652

 Excited State  29:      Singlet-A'    13.8972 eV   89.22 nm  f=0.0729  <S**2>=0.000
       9 -> 15         0.65107
      10 -> 18        -0.12969
      10 -> 19         0.12768

 Excited State  30:      Singlet-A'    14.1691 eV   87.50 nm  f=0.0390  <S**2>=0.000
       7 -> 14        -0.15192
       9 -> 15         0.16373
      10 -> 18         0.58073
      10 -> 19        -0.24070

 Excited State  31:      Singlet-A"    14.2005 eV   87.31 nm  f=0.0004  <S**2>=0.000
       6 -> 13         0.47536
       8 -> 15        -0.29703
       8 -> 17         0.19801
      11 -> 19        -0.33119

 Excited State  32:      Singlet-A'    14.3692 eV   86.28 nm  f=0.0328  <S**2>=0.000
       7 -> 14         0.52453
       7 -> 15         0.18679
       8 -> 16         0.29418
      10 -> 19        -0.21638

 Excited State  33:      Singlet-A"    14.5117 eV   85.44 nm  f=0.0054  <S**2>=0.000
       6 -> 13         0.24704
       8 -> 15         0.31047
       8 -> 17         0.44473
       9 -> 16        -0.14165
      11 -> 17         0.10071
      11 -> 19         0.29891

 Excited State  34:      Singlet-A'    14.5252 eV   85.36 nm  f=0.1424  <S**2>=0.000
       7 -> 14         0.28221
       8 -> 16        -0.28529
       9 -> 17         0.46831
      10 -> 18         0.13001
      10 -> 19         0.12389
      12 -> 24         0.17436

 Excited State  35:      Singlet-A"    14.5850 eV   85.01 nm  f=0.0061  <S**2>=0.000
       7 -> 16         0.15885
       9 -> 16         0.65029
      11 -> 19         0.10581

 Excited State  36:      Singlet-A'    14.7063 eV   84.31 nm  f=0.0095  <S**2>=0.000
       7 -> 14        -0.26416
       7 -> 15         0.18866
       8 -> 16         0.36249
       9 -> 17         0.41950
      10 -> 19        -0.12140
      11 -> 20         0.10362

 Excited State  37:      Singlet-A"    14.8572 eV   83.45 nm  f=0.1647  <S**2>=0.000
       6 -> 13        -0.41145
       8 -> 15        -0.17593
       8 -> 17         0.44491
      10 -> 20         0.14897
      11 -> 19        -0.19034

 Excited State  38:      Singlet-A'    15.0340 eV   82.47 nm  f=0.0799  <S**2>=0.000
       7 -> 17        -0.11251
       8 -> 16         0.10534
      11 -> 20        -0.27360
      12 -> 24         0.58758

 Excited State  39:      Singlet-A'    15.0893 eV   82.17 nm  f=0.0298  <S**2>=0.000
       7 -> 17        -0.17465
       7 -> 18         0.12277
       8 -> 16         0.24161
       9 -> 18        -0.23110
      10 -> 18         0.25714
      10 -> 19         0.46921

 Excited State  40:      Singlet-A'    15.1917 eV   81.61 nm  f=0.1912  <S**2>=0.000
       7 -> 15         0.60176
       8 -> 16        -0.24030
       9 -> 18        -0.13421

 Excited State  41:      Singlet-A'    15.4127 eV   80.44 nm  f=0.0546  <S**2>=0.000
       7 -> 17        -0.14044
       9 -> 17        -0.10023
       9 -> 18         0.24514
      10 -> 19         0.14905
      11 -> 20         0.52931
      11 -> 22         0.17108
      12 -> 24         0.20189

 Excited State  42:      Singlet-A'    15.5061 eV   79.96 nm  f=0.0746  <S**2>=0.000
       7 -> 15         0.10729
       7 -> 17         0.10107
       7 -> 18         0.10290
       9 -> 17         0.10414
       9 -> 18         0.52078
       9 -> 19         0.15235
      10 -> 18         0.10176
      10 -> 19         0.19344
      11 -> 20        -0.20571
      12 -> 26        -0.10364

 Excited State  43:      Singlet-A"    15.5666 eV   79.65 nm  f=0.0053  <S**2>=0.000
       7 -> 16        -0.19036
       8 -> 18         0.54653
       8 -> 19        -0.11539
      10 -> 20        -0.23661
      11 -> 19        -0.13637
      11 -> 21         0.21520

 Excited State  44:      Singlet-A"    15.7464 eV   78.74 nm  f=0.0100  <S**2>=0.000
       7 -> 16         0.54773
       9 -> 16        -0.14555
      10 -> 20        -0.37232

 Excited State  45:      Singlet-A'    15.8424 eV   78.26 nm  f=0.1009  <S**2>=0.000
       7 -> 17         0.59216
       7 -> 18        -0.15158
       9 -> 17        -0.14944
       9 -> 19         0.12710
      10 -> 18         0.10864
      10 -> 19         0.12933
      12 -> 24         0.11231

 Excited State  46:      Singlet-A"    16.0169 eV   77.41 nm  f=0.0792  <S**2>=0.000
       7 -> 16         0.20997
       8 -> 17        -0.12246
       8 -> 18         0.32457
       8 -> 19        -0.14599
      10 -> 20         0.39339
      11 -> 21        -0.29468
      11 -> 23        -0.21507

 Excited State  47:      Singlet-A"    16.0957 eV   77.03 nm  f=0.0875  <S**2>=0.000
       7 -> 16         0.19320
       8 -> 18         0.12797
       8 -> 19         0.49556
      10 -> 20         0.20040
      11 -> 21         0.33976

 Excited State  48:      Singlet-A'    16.2259 eV   76.41 nm  f=0.0689  <S**2>=0.000
       7 -> 17         0.14780
       7 -> 18         0.11489
       8 -> 20         0.10042
       9 -> 19        -0.43033
      11 -> 20        -0.16086
      11 -> 22         0.43771

 Excited State  49:      Singlet-A'    16.4744 eV   75.26 nm  f=0.0238  <S**2>=0.000
       7 -> 15        -0.11941
       7 -> 18         0.18829
       9 -> 19         0.44585
      10 -> 21         0.22635
      11 -> 22         0.36886

 Excited State  50:      Singlet-A"    16.4891 eV   75.19 nm  f=0.0003  <S**2>=0.000
       8 -> 18         0.20601
       8 -> 19         0.24427
      11 -> 21        -0.35120
      11 -> 23         0.49754

 Excited State  51:      Singlet-A"    16.5899 eV   74.73 nm  f=0.3831  <S**2>=0.000
       7 -> 16         0.11384
       8 -> 19        -0.33735
      10 -> 20         0.22620
      11 -> 21         0.30172
      11 -> 23         0.42330

 Excited State  52:      Singlet-A'    16.6927 eV   74.27 nm  f=0.1431  <S**2>=0.000
       7 -> 17         0.13254
       7 -> 18         0.43278
       7 -> 19         0.15788
       9 -> 19        -0.12726
      10 -> 21         0.26536
      11 -> 22        -0.23131
      12 -> 26         0.27664

 Excited State  53:      Singlet-A'    16.9304 eV   73.23 nm  f=0.0419  <S**2>=0.000
       7 -> 18        -0.38796
      10 -> 21         0.45945
      10 -> 23         0.20868
      12 -> 25        -0.12517
      12 -> 26         0.12891

 Excited State  54:      Singlet-A"    17.1601 eV   72.25 nm  f=0.0037  <S**2>=0.000
       9 -> 20         0.49675
       9 -> 22         0.12030
      10 -> 22        -0.46124

 Excited State  55:      Singlet-A'    17.1700 eV   72.21 nm  f=0.0056  <S**2>=0.000
       6 -> 14         0.42230
       7 -> 19         0.24156
      12 -> 25        -0.32486
      12 -> 28         0.32038

 Excited State  56:      Singlet-A'    17.2509 eV   71.87 nm  f=0.0410  <S**2>=0.000
       6 -> 14         0.36719
       8 -> 20         0.24427
      10 -> 21         0.23379
      10 -> 23         0.10516
      11 -> 22        -0.12746
      12 -> 25         0.28147
      12 -> 26        -0.25617
      12 -> 28        -0.18102

 Excited State  57:      Singlet-A'    17.3119 eV   71.62 nm  f=0.0352  <S**2>=0.000
       6 -> 14        -0.28334
       7 -> 19        -0.16385
       8 -> 20         0.43858
      11 -> 22        -0.12678
      12 -> 25        -0.27346
      12 -> 26        -0.19504
      12 -> 27         0.11979
      12 -> 28         0.13662

 Excited State  58:      Singlet-A"    17.3492 eV   71.46 nm  f=0.0011  <S**2>=0.000
       7 -> 20         0.15835
       9 -> 20         0.40832
       9 -> 22         0.12699
      10 -> 22         0.46494
      11 -> 24         0.18862

 Excited State  59:      Singlet-A'    17.4440 eV   71.08 nm  f=0.0578  <S**2>=0.000
       6 -> 15         0.16089
       7 -> 19        -0.13083
       8 -> 20         0.14716
      10 -> 21        -0.21391
      10 -> 23         0.52545
      12 -> 26         0.24088

 Excited State  60:      Singlet-A'    17.6030 eV   70.43 nm  f=0.1851  <S**2>=0.000
       6 -> 15         0.27969
       7 -> 18        -0.12354
       7 -> 19         0.15977
       8 -> 20         0.31148
       8 -> 22         0.11548
      10 -> 23        -0.28866
      12 -> 25         0.11455
      12 -> 26         0.30301
      12 -> 28        -0.17037

 Excited State  61:      Singlet-A"    17.6854 eV   70.11 nm  f=0.0058  <S**2>=0.000
       8 -> 24         0.12383
       9 -> 20        -0.13978
      10 -> 22        -0.13672
      11 -> 24         0.65143

 Excited State  62:      Singlet-A'    17.7851 eV   69.71 nm  f=0.1493  <S**2>=0.000
       6 -> 14        -0.12950
       7 -> 19         0.46814
       8 -> 22        -0.10441
      10 -> 23         0.18634
      12 -> 25        -0.14972
      12 -> 26        -0.21569
      12 -> 28        -0.31305

 Excited State  63:      Singlet-A'    17.8420 eV   69.49 nm  f=0.0418  <S**2>=0.000
       6 -> 14        -0.16588
       7 -> 19         0.24229
       8 -> 20         0.12486
       9 -> 23        -0.11584
      10 -> 23         0.12847
      12 -> 25         0.38570
      12 -> 27        -0.15240
      12 -> 28         0.39195

 Excited State  64:      Singlet-A'    17.9962 eV   68.89 nm  f=0.0248  <S**2>=0.000
       6 -> 15         0.21725
       6 -> 17        -0.18516
       8 -> 20        -0.17940
       9 -> 21         0.15670
       9 -> 23         0.10908
      12 -> 27         0.50658
      12 -> 28         0.11580
      12 -> 30         0.12410

 Excited State  65:      Singlet-A"    18.1350 eV   68.37 nm  f=0.0059  <S**2>=0.000
       6 -> 16         0.28793
       7 -> 20        -0.13728
       8 -> 21         0.34274
       9 -> 22         0.49554

 Excited State  66:      Singlet-A"    18.2142 eV   68.07 nm  f=0.0097  <S**2>=0.000
       6 -> 16        -0.16902
       8 -> 21         0.55592
       9 -> 20         0.12770
       9 -> 22        -0.28851
      12 -> 29         0.11481

 Excited State  67:      Singlet-A'    18.2882 eV   67.79 nm  f=0.0009  <S**2>=0.000
       6 -> 17        -0.18850
       7 -> 21         0.10243
       9 -> 21         0.57221
      12 -> 27        -0.18747
      12 -> 28        -0.15712

 Excited State  68:      Singlet-A'    18.3185 eV   67.68 nm  f=0.0376  <S**2>=0.000
       6 -> 15         0.45922
       6 -> 17        -0.14244
       7 -> 19        -0.12189
       8 -> 20        -0.14204
       8 -> 22         0.21313
       9 -> 21        -0.16367
      11 -> 22        -0.11273
      12 -> 26        -0.15959
      12 -> 27        -0.27775

 Excited State  69:      Singlet-A"    18.4621 eV   67.16 nm  f=0.0294  <S**2>=0.000
       6 -> 16         0.25971
       7 -> 20         0.36603
       7 -> 22         0.11280
       8 -> 23         0.49168
       9 -> 22        -0.12906

 Excited State  70:      Singlet-A"    18.5305 eV   66.91 nm  f=0.0286  <S**2>=0.000
       6 -> 16        -0.27587
       7 -> 20        -0.32948
       7 -> 22        -0.10240
       8 -> 21        -0.14175
       8 -> 23         0.47604
       9 -> 22         0.15137
      10 -> 22         0.11196

 Excited State  71:      Singlet-A'    18.6203 eV   66.59 nm  f=0.0831  <S**2>=0.000
       6 -> 15        -0.15196
       8 -> 22         0.52837
       9 -> 23        -0.33093
      10 -> 24         0.11523
      12 -> 27         0.11273
      12 -> 30         0.11955

 Excited State  72:      Singlet-A'    18.6411 eV   66.51 nm  f=0.1097  <S**2>=0.000
       6 -> 15         0.20813
       6 -> 17         0.51524
       9 -> 21         0.19562
       9 -> 23        -0.30020

 Excited State  73:      Singlet-A"    18.7184 eV   66.24 nm  f=0.0434  <S**2>=0.000
       6 -> 16         0.43530
       7 -> 20        -0.39220
       7 -> 22        -0.13748
       9 -> 20         0.11306
       9 -> 22        -0.28583
      12 -> 29        -0.14429

 Excited State  74:      Singlet-A'    18.8423 eV   65.80 nm  f=0.0223  <S**2>=0.000
       6 -> 17         0.20549
       6 -> 18        -0.15209
       7 -> 19         0.10220
       8 -> 22         0.24854
       9 -> 23         0.35069
      10 -> 24        -0.27489
      12 -> 30         0.33357

 Excited State  75:      Singlet-A"    18.9892 eV   65.29 nm  f=0.0242  <S**2>=0.000
       6 -> 16         0.19247
      12 -> 29         0.64017
      12 -> 32        -0.12721

 Excited State  76:      Singlet-A'    19.0874 eV   64.96 nm  f=0.0757  <S**2>=0.000
       9 -> 23         0.10879
       9 -> 24        -0.15950
      10 -> 24         0.48753
      12 -> 27        -0.16535
      12 -> 30         0.35928

 Excited State  77:      Singlet-A'    19.1838 eV   64.63 nm  f=0.1314  <S**2>=0.000
       6 -> 17        -0.21295
       7 -> 21         0.10924
       7 -> 23         0.22318
       8 -> 22        -0.20648
       9 -> 23        -0.30453
      10 -> 24        -0.21776
      12 -> 30         0.34541

 Excited State  78:      Singlet-A"    19.2656 eV   64.36 nm  f=0.0251  <S**2>=0.000
       5 -> 13         0.66602
      11 -> 26        -0.15160

 Excited State  79:      Singlet-A'    19.4375 eV   63.79 nm  f=0.0467  <S**2>=0.000
       7 -> 21         0.63245
       7 -> 23         0.12437
       9 -> 21        -0.13256
      10 -> 21         0.10203
      10 -> 24         0.14311

 Excited State  80:      Singlet-A"    19.5525 eV   63.41 nm  f=0.0501  <S**2>=0.000
       7 -> 20        -0.20324
       7 -> 22         0.62480
      12 -> 29         0.12742
      12 -> 32         0.10068

 Excited State  81:      Singlet-A'    19.7037 eV   62.92 nm  f=0.0481  <S**2>=0.000
       6 -> 18         0.63925
       9 -> 24         0.13257
      10 -> 24        -0.12926
      12 -> 30         0.10206

 Excited State  82:      Singlet-A'    19.8153 eV   62.57 nm  f=0.0823  <S**2>=0.000
       6 -> 19        -0.27251
       7 -> 21        -0.13920
       7 -> 23         0.53336
       9 -> 24        -0.24510
      12 -> 30        -0.11810

 Excited State  83:      Singlet-A"    19.9507 eV   62.15 nm  f=0.0046  <S**2>=0.000
       5 -> 13         0.14999
       8 -> 24         0.10565
      11 -> 25        -0.15386
      11 -> 26         0.62529
      11 -> 27        -0.12454

 Excited State  84:      Singlet-A'    20.0077 eV   61.97 nm  f=0.0679  <S**2>=0.000
       7 -> 23         0.26227
       9 -> 24         0.55922
      10 -> 24         0.20580

 Excited State  85:      Singlet-A"    20.1177 eV   61.63 nm  f=0.0224  <S**2>=0.000
       8 -> 24         0.23233
       8 -> 25        -0.10252
      11 -> 25         0.60721
      11 -> 26         0.10702
      11 -> 28        -0.15606

 Excited State  86:      Singlet-A'    20.2197 eV   61.32 nm  f=0.0253  <S**2>=0.000
       6 -> 19         0.58802
       7 -> 23         0.21025
       9 -> 24        -0.20234
      10 -> 26         0.10811

 Excited State  87:      Singlet-A"    20.3114 eV   61.04 nm  f=0.0015  <S**2>=0.000
       7 -> 22        -0.13324
       8 -> 24        -0.14520
      12 -> 29         0.10741
      12 -> 32         0.65737

 Excited State  88:      Singlet-A"    20.4096 eV   60.75 nm  f=0.0031  <S**2>=0.000
       8 -> 24         0.60291
      11 -> 24        -0.11779
      11 -> 25        -0.22371
      11 -> 26        -0.15077
      12 -> 32         0.14003

 Excited State  89:      Singlet-A'    20.5476 eV   60.34 nm  f=0.0076  <S**2>=0.000
       6 -> 19         0.14418
      10 -> 25         0.50394
      10 -> 26        -0.40483
      10 -> 27         0.10340

 Excited State  90:      Singlet-A'    20.6811 eV   59.95 nm  f=0.0277  <S**2>=0.000
       7 -> 24         0.16007
      12 -> 30        -0.16756
      12 -> 31         0.58666
      12 -> 33        -0.23664

 Excited State  91:      Singlet-A'    20.8266 eV   59.53 nm  f=0.0729  <S**2>=0.000
       7 -> 24         0.26851
      10 -> 25         0.40002
      10 -> 26         0.45586
      12 -> 31        -0.13398

 Excited State  92:      Singlet-A"    20.8317 eV   59.52 nm  f=0.0044  <S**2>=0.000

 The electronic state is 1-A'.
 Alpha  occ. eigenvalues --  -19.25055 -10.37953 -10.29580  -1.15815  -0.85830
 Alpha  occ. eigenvalues --   -0.67795  -0.57458  -0.53896  -0.53068  -0.48797
 Alpha  occ. eigenvalues --   -0.45621  -0.34580
 Alpha virt. eigenvalues --    0.04709   0.11964   0.15336   0.17548   0.18286
 Alpha virt. eigenvalues --    0.21732   0.24126   0.29120   0.31216   0.32680
 Alpha virt. eigenvalues --    0.34046   0.38851   0.45878   0.47410   0.49278

 Mulliken charges:
               1
     1  C   -0.295192
     2  C    0.143847
     3  O   -0.293369
     4  H    0.127865
     5  H    0.127865
     6  H    0.127128
     7  H    0.061855
 Sum of Mulliken charges =  -0.00000

 Dipole moment (field-independent basis, Debye):
    X=              2.8200    Y=             -0.3238    Z=             -0.0000  Tot=              2.8385
 Quadrupole moment (field-independent basis, Debye-Ang):
   XX=            -20.9888   YY=            -17.7945   ZZ=            -17.7815
   XY=              0.8414   XZ=             -0.0000   YZ=             -0.0000

 Normal termination of Gaussian 16 at Sat Aug 14 06:21:47 2021.
