 Gaussian 16, Revision C.01,
 Gaussian 16:  EM64L-G16RevC.01  3-Jul-2019

 ----------------------------------------------------------------------
 #P TD(Nstates=10000) wB97XD/def2TZVP SCF(maxcycles=100) Int(Grid=ultra
 fine)
 ----------------------------------------------------------------------

 ---------------------
 xGDB7_00001_tier4.com
 ---------------------
 Symbolic Z-matrix:
 Charge =  0 Multiplicity = 1

                         Standard orientation:
 ---------------------------------------------------------------------
 Center     Atomic      Atomic             Coordinates (Angstroms)
 Number     Number       Type             X           Y           Z
 ---------------------------------------------------------------------
      1          6           0       -1.208422   -0.239069   -0.021917
      2          6           0        0.083893    0.553452    0.046734
      3          8           0        1.233467   -0.256002   -0.105864
      4          1           0       -2.071999    0.425135    0.051700
      5          1           0       -1.270670   -0.957756    0.799731
      6          1           0       -1.270625   -0.788280   -0.962327
      7          1           0        0.130030    1.119197    0.986112
      8          1           0        0.125951    1.277026   -0.768547
      9          1           0        1.236751   -0.913605    0.591341
 ---------------------------------------------------------------------

 SCF Done:  E(RwB97XD) =  -155.055959678     A.U. after   12 cycles

 Excitation energies and oscillator strengths:

 Excited State   1:      Singlet-A      7.5697 eV  163.79 nm  f=0.0049  <S**2>=0.000
      13 -> 14         0.65409
      13 -> 15        -0.24546
 This state for optimization and/or second-order correction.
 Total Energy, E(TD-HF/TD-DFT) =  -154.777778885
 Copying the excited state density for this state as the 1-particle RhoCI density.

 Excited State   2:      Singlet-A      9.0763 eV  136.60 nm  f=0.0192  <S**2>=0.000
      12 -> 14        -0.29847
      13 -> 14         0.20377
      13 -> 15         0.54725
      13 -> 16         0.19490
      13 -> 18         0.11706

 Excited State   3:      Singlet-A      9.2279 eV  134.36 nm  f=0.0179  <S**2>=0.000
      12 -> 14         0.60686
      12 -> 15        -0.12694
      13 -> 14         0.10261
      13 -> 15         0.26574

 Excited State   4:      Singlet-A      9.6353 eV  128.68 nm  f=0.0350  <S**2>=0.000
      13 -> 15        -0.15333
      13 -> 16         0.63683
      13 -> 17         0.12047
      13 -> 20        -0.16936

 Excited State   5:      Singlet-A      9.9479 eV  124.63 nm  f=0.1006  <S**2>=0.000
      13 -> 15         0.11099
      13 -> 16        -0.11726
      13 -> 17         0.65989

 Excited State   6:      Singlet-A     10.2670 eV  120.76 nm  f=0.0087  <S**2>=0.000
      10 -> 14         0.17022
      11 -> 14        -0.36288
      12 -> 14         0.13862
      12 -> 15         0.52513

 Excited State   7:      Singlet-A     10.5955 eV  117.02 nm  f=0.0089  <S**2>=0.000
      13 -> 18         0.59402
      13 -> 19        -0.15888
      13 -> 20        -0.29729

 Excited State   8:      Singlet-A     10.6743 eV  116.15 nm  f=0.1331  <S**2>=0.000
      11 -> 14         0.54538
      12 -> 15         0.34544
      13 -> 18        -0.12309
      13 -> 20        -0.14999

 Excited State   9:      Singlet-A     10.7799 eV  115.01 nm  f=0.0067  <S**2>=0.000
      10 -> 14         0.31142
      11 -> 14         0.20800
      12 -> 16        -0.10953
      13 -> 16         0.11053
      13 -> 18         0.26648
      13 -> 19         0.28311
      13 -> 20         0.36561
      13 -> 21         0.11055

 Excited State  10:      Singlet-A     10.8698 eV  114.06 nm  f=0.1376  <S**2>=0.000
      10 -> 14        -0.32117
      12 -> 16         0.47388
      12 -> 17         0.10919
      13 -> 19         0.32220

 Excited State  11:      Singlet-A     10.9051 eV  113.69 nm  f=0.0705  <S**2>=0.000
      10 -> 14        -0.13862
      12 -> 16        -0.34314
      12 -> 17        -0.10106
      13 -> 19         0.48182
      13 -> 20        -0.28470

 Excited State  12:      Singlet-A     11.0779 eV  111.92 nm  f=0.0392  <S**2>=0.000
      10 -> 14         0.45381
      11 -> 15         0.14289
      12 -> 15        -0.17121
      12 -> 16         0.27222
      13 -> 17        -0.10565
      13 -> 19         0.17025
      13 -> 20        -0.29664

 Excited State  13:      Singlet-A     11.3456 eV  109.28 nm  f=0.1124  <S**2>=0.000
      12 -> 15         0.10458
      12 -> 16        -0.14515
      12 -> 17         0.66094

 Excited State  14:      Singlet-A     11.6900 eV  106.06 nm  f=0.0124  <S**2>=0.000
       8 -> 14        -0.14974
      10 -> 14        -0.12406
      11 -> 15         0.59121
      12 -> 18         0.23504
      12 -> 20        -0.13639

 Excited State  15:      Singlet-A     11.7492 eV  105.53 nm  f=0.0224  <S**2>=0.000
      10 -> 15        -0.17694
      11 -> 15        -0.17419
      11 -> 16         0.12203
      11 -> 18        -0.11330
      12 -> 18         0.59502

 Excited State  16:      Singlet-A     11.9423 eV  103.82 nm  f=0.0776  <S**2>=0.000
       9 -> 14         0.17760
      10 -> 15         0.49408
      10 -> 16        -0.13995
      11 -> 15        -0.11586
      12 -> 18         0.10253
      12 -> 20        -0.18902
      13 -> 21        -0.29539
      13 -> 22        -0.10892

 Excited State  17:      Singlet-A     12.1103 eV  102.38 nm  f=0.1274  <S**2>=0.000
      10 -> 15         0.10427
      11 -> 16         0.26963
      12 -> 19        -0.37953
      12 -> 20        -0.22211
      13 -> 21         0.37951
      13 -> 22         0.15656

 Excited State  18:      Singlet-A     12.1698 eV  101.88 nm  f=0.0966  <S**2>=0.000
       9 -> 14         0.11915
      10 -> 15        -0.16227
      11 -> 16         0.50673
      11 -> 18         0.10740
      12 -> 18        -0.15060
      12 -> 19         0.26425
      12 -> 20        -0.16072
      13 -> 21        -0.14516

 Excited State  19:      Singlet-A     12.2121 eV  101.53 nm  f=0.0575  <S**2>=0.000
      10 -> 15         0.26921
      10 -> 16        -0.14353
      12 -> 19         0.39464
      12 -> 20         0.22807
      13 -> 21         0.28451
      13 -> 22         0.25488

 Excited State  20:      Singlet-A     12.2826 eV  100.94 nm  f=0.0672  <S**2>=0.000
       9 -> 14        -0.25274
      10 -> 15         0.21357
      10 -> 16         0.34026
      10 -> 17         0.10970
      11 -> 16         0.28734
      12 -> 19        -0.10822
      12 -> 20         0.32660

 Excited State  21:      Singlet-A     12.4981 eV   99.20 nm  f=0.1234  <S**2>=0.000
       9 -> 14         0.34180
      10 -> 15        -0.14661
      10 -> 16        -0.24426
      11 -> 16         0.10199
      12 -> 19        -0.25488
      12 -> 20         0.37591
      13 -> 21        -0.12237

 Excited State  22:      Singlet-A     12.5129 eV   99.09 nm  f=0.0298  <S**2>=0.000
       9 -> 14         0.45432
      10 -> 16         0.44448
      13 -> 21         0.16883

 Excited State  23:      Singlet-A     12.5758 eV   98.59 nm  f=0.0848  <S**2>=0.000
       8 -> 14         0.14163
      10 -> 17         0.15963
      11 -> 17         0.61309
      13 -> 22        -0.13267

 Excited State  24:      Singlet-A     12.7311 eV   97.39 nm  f=0.0310  <S**2>=0.000
      10 -> 16         0.16990
      10 -> 17         0.20834
      11 -> 16        -0.10608
      11 -> 17         0.11834
      11 -> 18        -0.15872
      12 -> 20        -0.10969
      13 -> 21        -0.19871
      13 -> 22         0.52637

 Excited State  25:      Singlet-A     12.7968 eV   96.89 nm  f=0.0942  <S**2>=0.000
      10 -> 17         0.49530
      10 -> 18        -0.13117
      11 -> 17        -0.15018
      11 -> 18        -0.27053
      12 -> 19         0.11758
      13 -> 21         0.14938
      13 -> 22        -0.19885

 Excited State  26:      Singlet-A     12.9356 eV   95.85 nm  f=0.2250  <S**2>=0.000
       8 -> 14         0.15688
      10 -> 17         0.21598
      10 -> 18        -0.13915
      10 -> 19        -0.12790
      11 -> 17        -0.20498
      11 -> 18         0.49036
      11 -> 19        -0.17429
      12 -> 18         0.13716

 Excited State  27:      Singlet-A     12.9893 eV   95.45 nm  f=0.0394  <S**2>=0.000
       8 -> 14         0.46423
      10 -> 17        -0.24442
      10 -> 18        -0.31696
      11 -> 15         0.11314
      11 -> 18        -0.19451
      11 -> 19        -0.11949

 Excited State  28:      Singlet-A     13.1108 eV   94.57 nm  f=0.0552  <S**2>=0.000
       8 -> 14         0.34014
      10 -> 17         0.10245
      10 -> 18         0.53707
      11 -> 15         0.10669
      11 -> 17        -0.10684

 Excited State  29:      Singlet-A     13.2321 eV   93.70 nm  f=0.0383  <S**2>=0.000
       8 -> 14         0.16821
       8 -> 15         0.11487
      10 -> 18        -0.11865
      10 -> 19         0.24884
      11 -> 18         0.11152
      11 -> 19         0.55488

 Excited State  30:      Singlet-A     13.3892 eV   92.60 nm  f=0.0003  <S**2>=0.000
       9 -> 15        -0.31714
      10 -> 17         0.11181
      10 -> 19         0.38170
      10 -> 20         0.11159
      11 -> 19        -0.20329
      11 -> 20        -0.26262
      12 -> 21        -0.22828
      13 -> 23        -0.15352

 Excited State  31:      Singlet-A     13.4879 eV   91.92 nm  f=0.0659  <S**2>=0.000
       9 -> 15        -0.23073
      10 -> 19         0.21649
      11 -> 20         0.51704
      12 -> 21         0.22664

 Excited State  32:      Singlet-A     13.5606 eV   91.43 nm  f=0.0303  <S**2>=0.000
       9 -> 16         0.11103
      10 -> 19         0.12573
      11 -> 20        -0.28450
      12 -> 21         0.48702
      12 -> 22         0.28651

 Excited State  33:      Singlet-A     13.6512 eV   90.82 nm  f=0.0752  <S**2>=0.000
       7 -> 14        -0.11611
       9 -> 15         0.48045
       9 -> 16         0.16440
      10 -> 19         0.22170
      10 -> 20         0.23781
      11 -> 19        -0.16012
      11 -> 20         0.11411
      12 -> 22         0.10297

 Excited State  34:      Singlet-A     13.7102 eV   90.43 nm  f=0.0488  <S**2>=0.000
       9 -> 15        -0.11588
       9 -> 16         0.30054
      12 -> 21        -0.18445
      12 -> 22         0.25037
      13 -> 23         0.47913

 Excited State  35:      Singlet-A     13.8403 eV   89.58 nm  f=0.0205  <S**2>=0.000
       9 -> 16        -0.31299
      10 -> 19         0.26465
      10 -> 20         0.10714
      12 -> 21         0.11230
      12 -> 22        -0.26295
      13 -> 23         0.42736

 Excited State  36:      Singlet-A     13.8597 eV   89.46 nm  f=0.0645  <S**2>=0.000
       8 -> 15        -0.12975
       9 -> 15        -0.10357
      10 -> 19        -0.17735
      10 -> 20         0.58236
      11 -> 19         0.15468

 Excited State  37:      Singlet-A     14.1134 eV   87.85 nm  f=0.0898  <S**2>=0.000
       8 -> 15         0.58669
       9 -> 17         0.19980
      12 -> 21         0.13357
      12 -> 22        -0.10884

 Excited State  38:      Singlet-A     14.1494 eV   87.63 nm  f=0.0480  <S**2>=0.000
       8 -> 15        -0.17956
       8 -> 16        -0.15663
       9 -> 16         0.36910
       9 -> 17         0.30082
      11 -> 22         0.10493
      12 -> 22        -0.34182

 Excited State  39:      Singlet-A     14.2340 eV   87.10 nm  f=0.0250  <S**2>=0.000
       7 -> 14         0.54643
       7 -> 15        -0.11463
       8 -> 15         0.11455
       9 -> 15         0.12205
       9 -> 17        -0.17135
      13 -> 24         0.24098
      13 -> 25         0.15901

 Excited State  40:      Singlet-A     14.3402 eV   86.46 nm  f=0.0499  <S**2>=0.000
       7 -> 14         0.13055
       9 -> 16        -0.26410
       9 -> 17         0.46318
      11 -> 21         0.13483
      12 -> 22         0.23806
      13 -> 25        -0.13275

 Excited State  41:      Singlet-A     14.4918 eV   85.55 nm  f=0.0038  <S**2>=0.000
       8 -> 16         0.52951
      11 -> 22        -0.24309
      12 -> 22        -0.18311
      13 -> 24         0.17071
      13 -> 25        -0.14221

 Excited State  42:      Singlet-A     14.5584 eV   85.16 nm  f=0.0087  <S**2>=0.000
       7 -> 14        -0.15491
       9 -> 18        -0.25541
       9 -> 19         0.13263
      11 -> 21         0.14638
      13 -> 23        -0.12596
      13 -> 24         0.12561
      13 -> 25         0.53360

 Excited State  43:      Singlet-A     14.6191 eV   84.81 nm  f=0.0386  <S**2>=0.000
       8 -> 17        -0.22352
       9 -> 17         0.13247
       9 -> 18         0.46527
      11 -> 21         0.15883
      11 -> 23         0.11027
      13 -> 25         0.15270
      13 -> 26         0.30203

 Excited State  44:      Singlet-A     14.6596 eV   84.58 nm  f=0.0435  <S**2>=0.000
       7 -> 14        -0.22810
       8 -> 16        -0.15236
       9 -> 19         0.10290
       9 -> 20         0.16932
      11 -> 21         0.14158
      13 -> 24         0.49455
      13 -> 25        -0.22106

 Excited State  45:      Singlet-A     14.7785 eV   83.90 nm  f=0.0240  <S**2>=0.000
       8 -> 16        -0.13104
       8 -> 17        -0.12536
       9 -> 17        -0.13991
       9 -> 19        -0.16835
      10 -> 22        -0.17476
      11 -> 21         0.50584
      13 -> 24        -0.15198
      13 -> 26        -0.13162

 Excited State  46:      Singlet-A     14.8542 eV   83.47 nm  f=0.0048  <S**2>=0.000
       8 -> 17         0.18639
       9 -> 18        -0.20670
       9 -> 20         0.15665
      10 -> 21        -0.19535
      11 -> 21         0.16649
      13 -> 24        -0.11286
      13 -> 26         0.47512

 Excited State  47:      Singlet-A     14.9768 eV   82.78 nm  f=0.0571  <S**2>=0.000
       8 -> 17         0.40921
       9 -> 18         0.18979
      10 -> 21        -0.28421
      11 -> 21         0.12301
      12 -> 23        -0.31848
      13 -> 26        -0.18087

 Excited State  48:      Singlet-A     14.9987 eV   82.66 nm  f=0.0495  <S**2>=0.000
       8 -> 18         0.12918
       9 -> 19         0.37940
      10 -> 21        -0.25073
      11 -> 21         0.12679
      12 -> 23         0.34321
      13 -> 24        -0.13142
      13 -> 26        -0.17627

 Excited State  49:      Singlet-A     15.0644 eV   82.30 nm  f=0.0753  <S**2>=0.000
       8 -> 17         0.35042
       9 -> 18         0.13867
       9 -> 20        -0.27230
      10 -> 21         0.33370
      11 -> 21         0.14626
      12 -> 23         0.27008

 Excited State  50:      Singlet-A     15.1795 eV   81.68 nm  f=0.0230  <S**2>=0.000
       9 -> 18        -0.13229
       9 -> 19         0.47945
       9 -> 20        -0.20383
      10 -> 22        -0.12673
      12 -> 23        -0.29835
      13 -> 25        -0.11502
      13 -> 26         0.15242

 Excited State  51:      Singlet-A     15.3207 eV   80.93 nm  f=0.0229  <S**2>=0.000
       8 -> 16         0.17997
       8 -> 18         0.49533
      10 -> 21         0.12330
      10 -> 22        -0.22201
      11 -> 22         0.27995

 Excited State  52:      Singlet-A     15.3906 eV   80.56 nm  f=0.0532  <S**2>=0.000
       7 -> 14         0.14034
       7 -> 15         0.56786
       7 -> 16         0.19969
      10 -> 22        -0.13044
      11 -> 22        -0.14112
      12 -> 23         0.10211

 Excited State  53:      Singlet-A     15.4450 eV   80.27 nm  f=0.0428  <S**2>=0.000
       7 -> 15         0.18258
       8 -> 16         0.18566
       8 -> 18        -0.30487
       9 -> 19         0.10023
      10 -> 22         0.10163
      11 -> 22         0.48678
      12 -> 24         0.11853

 Excited State  54:      Singlet-A     15.5897 eV   79.53 nm  f=0.0745  <S**2>=0.000
       7 -> 17         0.15616
       8 -> 19         0.46932
       8 -> 20         0.19461
      10 -> 22        -0.24546
      10 -> 23        -0.15260
      11 -> 23        -0.11338
      12 -> 24         0.18950

 Excited State  55:      Singlet-A     15.6141 eV   79.41 nm  f=0.1575  <S**2>=0.000
       9 -> 20         0.38951
      10 -> 21         0.24879
      10 -> 22         0.23701
      11 -> 22        -0.16737
      12 -> 23        -0.11686
      12 -> 24         0.24904
      13 -> 24        -0.10276

 Excited State  56:      Singlet-A     15.8111 eV   78.42 nm  f=0.1198  <S**2>=0.000
       7 -> 15         0.11018
       7 -> 16        -0.10430
       7 -> 17        -0.16750
       8 -> 17        -0.13362
       8 -> 19         0.40668
       9 -> 17        -0.10444
       9 -> 20        -0.17238
      10 -> 22         0.28045
      10 -> 23         0.17126
      12 -> 24        -0.18398
      12 -> 25        -0.18356

 Excited State  57:      Singlet-A     15.8617 eV   78.17 nm  f=0.1061  <S**2>=0.000
       7 -> 16         0.12078
       7 -> 17        -0.16817
       8 -> 18         0.12070
       9 -> 20        -0.22021
       9 -> 21        -0.10575
      10 -> 21        -0.17581
      10 -> 22         0.14962
      11 -> 23         0.10169
      12 -> 24         0.45195
      12 -> 25         0.23096

 Excited State  58:      Singlet-A     15.9914 eV   77.53 nm  f=0.0467  <S**2>=0.000
       7 -> 17        -0.15089
       8 -> 19        -0.23719
       8 -> 20         0.42236
      11 -> 23        -0.29195
      12 -> 25        -0.29592

 Excited State  59:      Singlet-A     16.0793 eV   77.11 nm  f=0.0511  <S**2>=0.000
       7 -> 16         0.51165
       7 -> 17         0.13014
       8 -> 20         0.19317
      10 -> 21         0.10234
      10 -> 22         0.21345
      10 -> 23         0.16525
      12 -> 24        -0.15760

 Excited State  60:      Singlet-A     16.1345 eV   76.84 nm  f=0.1380  <S**2>=0.000
       7 -> 16        -0.17003
       7 -> 17        -0.21400
       8 -> 17         0.13831
       8 -> 20         0.25895
       9 -> 20         0.10382
      10 -> 22        -0.16704
      10 -> 23         0.22541
      11 -> 23         0.40133

 Excited State  61:      Singlet-A     16.2437 eV   76.33 nm  f=0.0408  <S**2>=0.000
       7 -> 16        -0.18173
       8 -> 20         0.15992
       9 -> 21        -0.24239
      10 -> 23         0.10489
      11 -> 23        -0.21570
      12 -> 24        -0.21466
      12 -> 25         0.44858
      12 -> 26         0.16986

 Excited State  62:      Singlet-A     16.3844 eV   75.67 nm  f=0.0412  <S**2>=0.000
       7 -> 15         0.11807
       7 -> 16        -0.19651
       7 -> 17         0.33357
       8 -> 18         0.11396
       8 -> 20         0.20798
       9 -> 22         0.18004
      10 -> 22         0.14323
      10 -> 23        -0.21468
      11 -> 23         0.21300
      13 -> 27        -0.18356
      13 -> 28         0.16009

 Excited State  63:      Singlet-A     16.4245 eV   75.49 nm  f=0.0042  <S**2>=0.000
       7 -> 15         0.12240
       7 -> 17         0.31803
       9 -> 21        -0.32904
      10 -> 23         0.33623
      11 -> 23        -0.11270
      12 -> 25        -0.10427
      12 -> 26        -0.29115

 Excited State  64:      Singlet-A     16.5705 eV   74.82 nm  f=0.0196  <S**2>=0.000
       7 -> 17         0.14333
       7 -> 20         0.16583
      10 -> 23         0.26545
      10 -> 24        -0.15550
      12 -> 24         0.12263
      12 -> 25        -0.12357
      12 -> 26         0.51006

 Excited State  65:      Singlet-A     16.7007 eV   74.24 nm  f=0.0030  <S**2>=0.000
       7 -> 15         0.10060
       7 -> 17         0.15640
       7 -> 20        -0.11465
       8 -> 20         0.12707
       8 -> 21         0.10827
       9 -> 21         0.35233
      11 -> 24         0.12772
      12 -> 25         0.12005
      12 -> 26        -0.10096
      13 -> 27         0.32124
      13 -> 28        -0.27814

 Excited State  66:      Singlet-A     16.8484 eV   73.59 nm  f=0.0324  <S**2>=0.000
       7 -> 18         0.62582
       7 -> 20        -0.12287
       9 -> 22         0.12602

 Excited State  67:      Singlet-A     16.9355 eV   73.21 nm  f=0.1877  <S**2>=0.000
       7 -> 18         0.10425
       7 -> 19         0.22115
       8 -> 21         0.10941
       9 -> 21        -0.25800
       9 -> 22         0.11107
      10 -> 23        -0.13125
      11 -> 23         0.11994
      11 -> 24        -0.21132
      13 -> 27         0.33848
      13 -> 28        -0.19554
      13 -> 31         0.13327

 Excited State  68:      Singlet-A     16.9944 eV   72.96 nm  f=0.1730  <S**2>=0.000
       8 -> 21         0.20400
       8 -> 22         0.18457
       9 -> 21        -0.17182
       9 -> 22        -0.38534
      10 -> 23        -0.12712
      10 -> 24         0.10581
      11 -> 24         0.39288

 Excited State  69:      Singlet-A     17.0899 eV   72.55 nm  f=0.0688  <S**2>=0.000
       7 -> 19        -0.12474
       7 -> 20        -0.10485
       8 -> 21         0.49017
       9 -> 22        -0.18330
      10 -> 24        -0.19782
      11 -> 24        -0.29732
      13 -> 27        -0.12681

 Excited State  70:      Singlet-A     17.1259 eV   72.40 nm  f=0.0289  <S**2>=0.000
       7 -> 17        -0.10606
       7 -> 20         0.13637
       8 -> 21         0.33226
       8 -> 22         0.13685
       9 -> 22         0.43135
      10 -> 25         0.17123
      11 -> 24         0.21567

 Excited State  71:      Singlet-A     17.2252 eV   71.98 nm  f=0.0120  <S**2>=0.000
       7 -> 17        -0.11123
       7 -> 19         0.60722
       9 -> 21         0.11286

 Excited State  72:      Singlet-A     17.3614 eV   71.41 nm  f=0.1829  <S**2>=0.000
       8 -> 21         0.11214
       8 -> 22         0.10122
      10 -> 23         0.12847
      10 -> 24         0.57792
      11 -> 24        -0.15290
      13 -> 27        -0.10829

 Excited State  73:      Singlet-A     17.4766 eV   70.94 nm  f=0.0726  <S**2>=0.000
       7 -> 18         0.13816
       8 -> 22         0.16140
      11 -> 24        -0.14603

 The electronic state is 1-A.
 Alpha  occ. eigenvalues --  -19.24417 -10.32653 -10.27488  -1.12263  -0.84791
 Alpha  occ. eigenvalues --   -0.72079  -0.59341  -0.54311  -0.52246  -0.46789
 Alpha  occ. eigenvalues --   -0.45664  -0.41006  -0.35932
 Alpha virt. eigenvalues --    0.10769   0.14713   0.16157   0.18097   0.19130
 Alpha virt. eigenvalues --    0.20814   0.22629   0.26699   0.28144   0.31324
 Alpha virt. eigenvalues --    0.35347   0.36772   0.39843   0.45467   0.47103

 Mulliken charges:
               1
     1  C   -0.353945
     2  C    0.014869
     3  O   -0.473882
     4  H    0.108107
     5  H    0.099266
     6  H    0.122372
     7  H    0.080238
     8  H    0.096847
     9  H    0.306128
 Sum of Mulliken charges =  -0.00000

 Dipole moment (field-independent basis, Debye):
    X=             -1.2278    Y=             -0.2213    Z=              1.1645  Tot=              1.7066
 Quadrupole moment (field-independent basis, Debye-Ang):
   XX=            -22.2980   YY=            -18.5379   ZZ=            -19.1417
   XY=             -1.0858   XZ=              1.7794   YZ=             -1.4873

 Normal termination of Gaussian 16 at Sat Aug 14 06:27:03 2021.
