 Gaussian 16, Revision C.01,
 Gaussian 16:  EM64L-G16RevC.01  3-Jul-2019

 ----------------------------------------------------------------------
 #P TD(Nstates=10000) wB97XD/def2TZVP SCF(maxcycles=100) Int(Grid=ultra
 fine)
 ----------------------------------------------------------------------

 ---------------------
 xGDB7_00001_tier4.com
 ---------------------
 Symbolic Z-matrix:
 Charge =  0 Multiplicity = 1

                         Standard orientation:
 ---------------------------------------------------------------------
 Center     Atomic      Atomic             Coordinates (Angstroms)
 Number     Number       Type             X           Y           Z
 ---------------------------------------------------------------------
      1          8           0       -1.023805   -0.438791    0.000000
      2          6           0       -0.000000    0.418952    0.000000
      3          8           0        1.152985    0.109982   -0.000000
      4          1           0       -0.656943   -1.333011    0.000000
      5          1           0       -0.376498    1.449770    0.000000
 ---------------------------------------------------------------------

 SCF Done:  E(RwB97XD) =  -189.784285338     A.U. after   15 cycles

 Excitation energies and oscillator strengths:

 Excited State   1:      Singlet-A"     5.9451 eV  208.55 nm  f=0.0012  <S**2>=0.000
      12 -> 13         0.70511
 This state for optimization and/or second-order correction.
 Total Energy, E(TD-HF/TD-DFT) =  -189.565808146
 Copying the excited state density for this state as the 1-particle RhoCI density.

 Excited State   2:      Singlet-A'     8.4967 eV  145.92 nm  f=0.0491  <S**2>=0.000
      11 -> 13        -0.48347
      12 -> 14         0.49669

 Excited State   3:      Singlet-A'     9.2542 eV  133.98 nm  f=0.2066  <S**2>=0.000
      11 -> 13         0.46687
      12 -> 14         0.49134
      12 -> 15        -0.13426

 Excited State   4:      Singlet-A"     9.4090 eV  131.77 nm  f=0.0033  <S**2>=0.000
      11 -> 14         0.68965

 Excited State   5:      Singlet-A"     9.4990 eV  130.52 nm  f=0.0001  <S**2>=0.000
      10 -> 13         0.69710

 Excited State   6:      Singlet-A'    10.0323 eV  123.59 nm  f=0.0940  <S**2>=0.000
      11 -> 13         0.11921
      12 -> 15         0.66788
      12 -> 16         0.15108

 Excited State   7:      Singlet-A'    10.9234 eV  113.50 nm  f=0.0279  <S**2>=0.000
       9 -> 13        -0.15494
      12 -> 15        -0.12833
      12 -> 16         0.67092

 Excited State   8:      Singlet-A"    11.1249 eV  111.45 nm  f=0.0001  <S**2>=0.000
      11 -> 15         0.69876

 Excited State   9:      Singlet-A'    11.6337 eV  106.57 nm  f=0.1252  <S**2>=0.000
       8 -> 14        -0.10635
      10 -> 14         0.68378

 Excited State  10:      Singlet-A'    11.9037 eV  104.16 nm  f=0.0492  <S**2>=0.000
       9 -> 13         0.58351
      12 -> 16         0.12415
      12 -> 17         0.33841

 Excited State  11:      Singlet-A"    12.0364 eV  103.01 nm  f=0.0482  <S**2>=0.000
       7 -> 13         0.17345
       8 -> 13         0.31411
      11 -> 16         0.58444
      11 -> 17         0.10512

 Excited State  12:      Singlet-A"    12.0454 eV  102.93 nm  f=0.0000  <S**2>=0.000
       8 -> 13         0.60585
      11 -> 16        -0.31344
      11 -> 17        -0.11199

 Excited State  13:      Singlet-A'    12.4505 eV   99.58 nm  f=0.2488  <S**2>=0.000
       9 -> 13        -0.31575
      11 -> 13         0.10912
      12 -> 17         0.59260

 Excited State  14:      Singlet-A"    12.5340 eV   98.92 nm  f=0.0195  <S**2>=0.000
       7 -> 13         0.67192
       8 -> 13        -0.13943
      11 -> 16        -0.11897

 Excited State  15:      Singlet-A"    12.8586 eV   96.42 nm  f=0.0264  <S**2>=0.000
       9 -> 14        -0.21187
      12 -> 18         0.66363

 Excited State  16:      Singlet-A"    12.9256 eV   95.92 nm  f=0.0008  <S**2>=0.000
       9 -> 14         0.50165
      11 -> 16         0.17743
      11 -> 17        -0.38828
      12 -> 18         0.22367

 Excited State  17:      Singlet-A"    13.0348 eV   95.12 nm  f=0.0637  <S**2>=0.000
       9 -> 14         0.40802
      11 -> 17         0.54780

 Excited State  18:      Singlet-A'    13.2156 eV   93.82 nm  f=0.0465  <S**2>=0.000
      10 -> 15         0.68915

 Excited State  19:      Singlet-A'    14.0176 eV   88.45 nm  f=0.0580  <S**2>=0.000
       8 -> 14        -0.10183
      10 -> 16        -0.15258
      11 -> 18         0.67391

 Excited State  20:      Singlet-A'    14.1048 eV   87.90 nm  f=0.0213  <S**2>=0.000
       8 -> 14         0.57397
      10 -> 16         0.33632
      11 -> 18         0.17209

 Excited State  21:      Singlet-A"    14.3400 eV   86.46 nm  f=0.0036  <S**2>=0.000
       9 -> 15         0.68711

 Excited State  22:      Singlet-A'    14.5252 eV   85.36 nm  f=0.1039  <S**2>=0.000
       7 -> 14        -0.11208
       8 -> 14        -0.34675
      10 -> 16         0.56697
      10 -> 17         0.13245

 Excited State  23:      Singlet-A'    14.7502 eV   84.06 nm  f=0.1172  <S**2>=0.000
       7 -> 14        -0.26481
      12 -> 19         0.62109

 Excited State  24:      Singlet-A'    15.0072 eV   82.62 nm  f=0.0933  <S**2>=0.000
       7 -> 14         0.56953
      10 -> 17         0.32325
      12 -> 19         0.22150

 Excited State  25:      Singlet-A'    15.2251 eV   81.43 nm  f=0.0173  <S**2>=0.000
       7 -> 14        -0.24766
       8 -> 15        -0.21022
      10 -> 16        -0.11093
      10 -> 17         0.56685
      12 -> 19        -0.16784

 Excited State  26:      Singlet-A"    15.5966 eV   79.49 nm  f=0.1428  <S**2>=0.000
       6 -> 13        -0.13951
       9 -> 16         0.67206

 Excited State  27:      Singlet-A"    15.6604 eV   79.17 nm  f=0.0064  <S**2>=0.000
       9 -> 17         0.11300
      11 -> 19         0.64742
      11 -> 20         0.19499

 Excited State  28:      Singlet-A'    15.7249 eV   78.85 nm  f=0.0360  <S**2>=0.000
       8 -> 15         0.64015
      10 -> 17         0.15582
      12 -> 20         0.18240

 Excited State  29:      Singlet-A'    16.1365 eV   76.83 nm  f=0.1143  <S**2>=0.000
       7 -> 15         0.56951
       9 -> 18        -0.15148
      12 -> 20        -0.35766

 Excited State  30:      Singlet-A"    16.1594 eV   76.73 nm  f=0.0075  <S**2>=0.000
      10 -> 18         0.69876

 Excited State  31:      Singlet-A"    16.2940 eV   76.09 nm  f=0.0310  <S**2>=0.000
       6 -> 13        -0.17869
       9 -> 16        -0.11016
       9 -> 17         0.64283
      11 -> 20        -0.13958

 Excited State  32:      Singlet-A'    16.5035 eV   75.13 nm  f=0.1733  <S**2>=0.000
       7 -> 15         0.33859
       8 -> 15        -0.15818
       8 -> 16         0.15599
       9 -> 18        -0.11702
      12 -> 20         0.51875

 Excited State  33:      Singlet-A'    16.6751 eV   74.35 nm  f=0.0238  <S**2>=0.000
       8 -> 16         0.65141
      12 -> 20        -0.13080

 Excited State  34:      Singlet-A"    17.0480 eV   72.73 nm  f=0.0020  <S**2>=0.000
       9 -> 16        -0.10021
       9 -> 17         0.11036
      11 -> 19        -0.21905
      11 -> 20         0.63575

 Excited State  35:      Singlet-A'    17.3193 eV   71.59 nm  f=0.0257  <S**2>=0.000
       7 -> 17        -0.11420
       9 -> 18         0.48158
      10 -> 19         0.18405
      12 -> 21        -0.41991

 Excited State  36:      Singlet-A"    17.3634 eV   71.41 nm  f=0.1671  <S**2>=0.000
       6 -> 13         0.63640
       9 -> 16         0.10391
       9 -> 17         0.18916
      11 -> 21         0.13640

 Excited State  37:      Singlet-A'    17.4266 eV   71.15 nm  f=0.0355  <S**2>=0.000
       7 -> 16         0.65080
       8 -> 17         0.13020
      12 -> 21         0.14484

 Excited State  38:      Singlet-A'    17.6077 eV   70.41 nm  f=0.0124  <S**2>=0.000
       7 -> 15        -0.10474
       8 -> 17         0.43947
       9 -> 18        -0.32039
      12 -> 21        -0.38841

 Excited State  39:      Singlet-A'    17.8570 eV   69.43 nm  f=0.0321  <S**2>=0.000
       6 -> 14         0.12464
       7 -> 15         0.11313
       7 -> 16        -0.13183
       7 -> 17         0.21198
       8 -> 17         0.37965
       9 -> 18         0.26161
      10 -> 19        -0.35936
      10 -> 20        -0.11496
      12 -> 22        -0.13917

 Excited State  40:      Singlet-A'    18.0754 eV   68.59 nm  f=0.0548  <S**2>=0.000
       7 -> 16        -0.15763
       7 -> 17        -0.14506
       8 -> 17         0.24022
       9 -> 18         0.11078
      10 -> 19         0.16200
      12 -> 21         0.23506
      12 -> 22         0.51255
      12 -> 23         0.10072

 Excited State  41:      Singlet-A"    18.0769 eV   68.59 nm  f=0.0487  <S**2>=0.000
       6 -> 13        -0.13930
       9 -> 19        -0.21065
      11 -> 21         0.63840

 Excited State  42:      Singlet-A'    18.1794 eV   68.20 nm  f=0.0467  <S**2>=0.000
       7 -> 17         0.27603
       8 -> 17         0.15599
      10 -> 19         0.48911
      10 -> 20         0.11474
      12 -> 21         0.15335
      12 -> 22        -0.28217

 Excited State  43:      Singlet-A'    18.5436 eV   66.86 nm  f=0.1094  <S**2>=0.000
       7 -> 17         0.56535
       8 -> 17        -0.16951
      12 -> 21        -0.14733
      12 -> 22         0.30114

 Excited State  44:      Singlet-A"    18.6251 eV   66.57 nm  f=0.0468  <S**2>=0.000
       8 -> 18         0.68463

 Excited State  45:      Singlet-A"    19.0175 eV   65.19 nm  f=0.0255  <S**2>=0.000
       7 -> 18         0.61620
       9 -> 19         0.24842
      12 -> 24        -0.15639

 Excited State  46:      Singlet-A'    19.0337 eV   65.14 nm  f=0.0203  <S**2>=0.000
       6 -> 14         0.62954
      10 -> 20         0.15934
      10 -> 21         0.11757

 Excited State  47:      Singlet-A"    19.1134 eV   64.87 nm  f=0.0258  <S**2>=0.000
       7 -> 18        -0.27583
       9 -> 19         0.53375
       9 -> 20         0.25021
      11 -> 21         0.17859
      11 -> 22        -0.12246

 Excited State  48:      Singlet-A'    19.1830 eV   64.63 nm  f=0.1680  <S**2>=0.000
       8 -> 19         0.10670
      10 -> 20        -0.13004
      12 -> 23         0.63774
      12 -> 26         0.11186

 Excited State  49:      Singlet-A'    19.2638 eV   64.36 nm  f=0.0326  <S**2>=0.000
       6 -> 14        -0.15330
       8 -> 19        -0.10847
      10 -> 19        -0.20406
      10 -> 20         0.59884
      12 -> 23         0.11457

 Excited State  50:      Singlet-A"    19.5455 eV   63.43 nm  f=0.0005  <S**2>=0.000
       9 -> 19         0.15706
       9 -> 20        -0.15113
      11 -> 22         0.60612
      11 -> 23         0.24585

 Excited State  51:      Singlet-A"    19.8726 eV   62.39 nm  f=0.0035  <S**2>=0.000
       7 -> 18         0.17302
      11 -> 23        -0.14588
      12 -> 24         0.62324
      12 -> 27        -0.20284

 Excited State  52:      Singlet-A"    19.9727 eV   62.08 nm  f=0.0036  <S**2>=0.000
      11 -> 22        -0.23648
      11 -> 23         0.62300
      12 -> 24         0.15505

 Excited State  53:      Singlet-A'    20.2232 eV   61.31 nm  f=0.0302  <S**2>=0.000
       8 -> 19         0.34948
      10 -> 21         0.47629
      10 -> 23        -0.11441
      11 -> 24        -0.27776

 Excited State  54:      Singlet-A"    20.4567 eV   60.61 nm  f=0.0058  <S**2>=0.000
       9 -> 19        -0.22672
       9 -> 20         0.61380
       9 -> 23        -0.10681
      11 -> 22         0.18659

 Excited State  55:      Singlet-A'    20.4611 eV   60.60 nm  f=0.0819  <S**2>=0.000
       6 -> 15         0.60771
       7 -> 19        -0.15260
       8 -> 19        -0.10610
      10 -> 20        -0.10987
      10 -> 21         0.11601
      12 -> 25        -0.12151

 Excited State  56:      Singlet-A'    20.6605 eV   60.01 nm  f=0.1042  <S**2>=0.000
       7 -> 19        -0.20016
       8 -> 19         0.42785
       8 -> 20         0.10550
      10 -> 20         0.11072
      10 -> 21        -0.16540
      12 -> 25        -0.10859
      12 -> 26        -0.40250

 Excited State  57:      Singlet-A'    20.7710 eV   59.69 nm  f=0.0975  <S**2>=0.000
       8 -> 19         0.26893
       8 -> 20         0.11791
      10 -> 21        -0.30555
      12 -> 26         0.51337

 Excited State  58:      Singlet-A"    20.8756 eV   59.39 nm  f=0.0028  <S**2>=0.000
      12 -> 24         0.20995
      12 -> 27         0.65674

 Excited State  59:      Singlet-A'    20.8919 eV   59.35 nm  f=0.0154  <S**2>=0.000
       6 -> 15         0.18187
      10 -> 21        -0.17574
      11 -> 24        -0.27531
      12 -> 25         0.53601

 Excited State  60:      Singlet-A'    21.1089 eV   58.74 nm  f=0.0750  <S**2>=0.000
       6 -> 16        -0.14968
       6 -> 17        -0.18189
       7 -> 19         0.11484
       7 -> 20         0.16270
       8 -> 19         0.14223
       8 -> 20        -0.19576
      10 -> 22        -0.19720
      11 -> 24         0.38065
      12 -> 25         0.32982

 Excited State  61:      Singlet-A'    21.3051 eV   58.19 nm  f=0.0492  <S**2>=0.000
       6 -> 15         0.11998
       6 -> 16         0.21921
       6 -> 17         0.12132
       7 -> 19         0.39076
       8 -> 20        -0.25029
      10 -> 21        -0.15440
      10 -> 22        -0.24620
      10 -> 23        -0.13720
      11 -> 24        -0.15766
      12 -> 25        -0.15849

 Excited State  62:      Singlet-A"    21.3686 eV   58.02 nm  f=0.0231  <S**2>=0.000
       9 -> 21         0.48834
       9 -> 23        -0.12138
      11 -> 25         0.43261
      11 -> 26         0.15625

 Excited State  63:      Singlet-A"    21.6380 eV   57.30 nm  f=0.0108  <S**2>=0.000
       9 -> 21        -0.33987
       9 -> 22        -0.11062
      11 -> 25         0.49043
      11 -> 26        -0.33807

 Excited State  64:      Singlet-A'    21.8208 eV   56.82 nm  f=0.0539  <S**2>=0.000
       6 -> 15         0.13047
       6 -> 16         0.16433
       7 -> 19         0.37875
       8 -> 20         0.32081
       8 -> 21         0.12641
      10 -> 21         0.10422
      10 -> 22         0.23917
      10 -> 23         0.10932
      11 -> 24         0.15327
      11 -> 27         0.13978
      12 -> 29        -0.13179

 Excited State  65:      Singlet-A'    21.8754 eV   56.68 nm  f=0.0164  <S**2>=0.000
       6 -> 16         0.49245
       6 -> 17         0.11385
       7 -> 19        -0.21915
       8 -> 20         0.10679
      10 -> 22        -0.12798
      11 -> 24         0.15514
      11 -> 27        -0.27201

 Excited State  66:      Singlet-A'    22.0279 eV   56.29 nm  f=0.0170  <S**2>=0.000
       6 -> 16        -0.21650
       6 -> 17        -0.14942
       8 -> 19        -0.11568
       8 -> 20         0.42945
      10 -> 22        -0.36263
      10 -> 23        -0.14781
      11 -> 27        -0.14480

 Excited State  67:      Singlet-A"    22.1008 eV   56.10 nm  f=0.0277  <S**2>=0.000
       9 -> 21        -0.33259
      11 -> 25         0.15382
      11 -> 26         0.57718

 Excited State  68:      Singlet-A'    22.2892 eV   55.63 nm  f=0.0202  <S**2>=0.000
       6 -> 16        -0.19092
       6 -> 17         0.54071
       7 -> 20         0.32836
      10 -> 23         0.12724

 Excited State  69:      Singlet-A'    22.3575 eV   55.46 nm  f=0.1426  <S**2>=0.000
       7 -> 20        -0.28138
       7 -> 21        -0.12702
      10 -> 22        -0.18918
      10 -> 23         0.54899
      11 -> 27        -0.13976

 Excited State  70:      Singlet-A'    22.4579 eV   55.21 nm  f=0.0092  <S**2>=0.000
       7 -> 19        -0.12205
       7 -> 21         0.11173
       8 -> 21         0.17363
      10 -> 22        -0.15633
      11 -> 27         0.40994
      12 -> 28        -0.15802
      12 -> 29         0.41321

 Excited State  71:      Singlet-A"    22.5460 eV   54.99 nm  f=0.0204  <S**2>=0.000
       8 -> 24        -0.14496
      10 -> 24         0.66628

 Excited State  72:      Singlet-A'    22.5811 eV   54.91 nm  f=0.0105  <S**2>=0.000
       6 -> 16         0.13140
       6 -> 17        -0.19703
       7 -> 19        -0.10861
       7 -> 20         0.22987
       8 -> 21         0.10855
      12 -> 28         0.56815

 Excited State  73:      Singlet-A'    22.7963 eV   54.39 nm  f=0.0644  <S**2>=0.000
       6 -> 16         0.10217
       6 -> 17        -0.21430
       7 -> 20         0.41072
       7 -> 21        -0.10997
       8 -> 21        -0.17587
       8 -> 22         0.11132
      10 -> 23         0.21382
      11 -> 24        -0.11937
      12 -> 28        -0.29571

 Excited State  74:      Singlet-A"    22.9867 eV   53.94 nm  f=0.0454  <S**2>=0.000
       9 -> 22         0.20935
       9 -> 23         0.18883
       9 -> 28         0.13641
      11 -> 28         0.61854

 Excited State  75:      Singlet-A"    23.2149 eV   53.41 nm  f=0.0018  <S**2>=0.000
       6 -> 18         0.46946
       9 -> 22        -0.25446
       9 -> 23         0.42745

 Excited State  76:      Singlet-A'    23.2604 eV   53.30 nm  f=0.0239  <S**2>=0.000
       8 -> 20        -0.10955
       8 -> 21         0.52297
       9 -> 24         0.13594
      10 -> 25        -0.19136
      10 -> 26         0.17876
      11 -> 24        -0.15519
      11 -> 27        -0.14724
      12 -> 28        -0.12486

 Excited State  77:      Singlet-A"    23.3430 eV   53.11 nm  f=0.0026  <S**2>=0.000
       6 -> 18        -0.46244
       9 -> 23         0.46931
      11 -> 28        -0.15491

 Excited State  78:      Singlet-A'    23.3522 eV   53.09 nm  f=0.0374  <S**2>=0.000
       7 -> 21         0.24400
       8 -> 21         0.20608
       8 -> 22         0.27107
       8 -> 23         0.11368
      10 -> 22        -0.14834
      10 -> 25         0.39648
      10 -> 26        -0.10507
      12 -> 29        -0.27659

 Excited State  79:      Singlet-A"    23.5591 eV   52.63 nm  f=0.0078  <S**2>=0.000
       6 -> 18         0.18056
       9 -> 22         0.59106
       9 -> 23         0.13315
      11 -> 25         0.12494
      11 -> 28        -0.24562

 Excited State  80:      Singlet-A'    23.9414 eV   51.79 nm  f=0.0585  <S**2>=0.000
       7 -> 21         0.37884
       7 -> 23        -0.11816
       8 -> 21        -0.17272
       8 -> 23        -0.14034
       9 -> 24         0.15620
      10 -> 25        -0.37041
      10 -> 26        -0.14520
      11 -> 24        -0.10488
      12 -> 29        -0.20604

 Excited State  81:      Singlet-A'    24.1694 eV   51.30 nm  f=0.1682  <S**2>=0.000
       6 -> 19         0.12736
       7 -> 21         0.32728
       8 -> 22        -0.16682
       9 -> 24         0.29247
      10 -> 22         0.15977
      10 -> 25         0.25829
      10 -> 28         0.15443
      11 -> 27        -0.22438
      12 -> 29         0.19458

 Excited State  82:      Singlet-A"    24.2200 eV   51.19 nm  f=0.0003  <S**2>=0.000
       8 -> 24         0.18219
       8 -> 27        -0.12898
      10 -> 27        -0.41551
      11 -> 29         0.49247

 Excited State  83:      Singlet-A'    24.2624 eV   51.10 nm  f=0.2491  <S**2>=0.000
       6 -> 19        -0.10243
       7 -> 21        -0.29249
       9 -> 24         0.46766
      10 -> 26        -0.27966
      12 -> 29        -0.12567

 Excited State  84:      Singlet-A"    24.2831 eV   51.06 nm  f=0.0631  <S**2>=0.000
       8 -> 24        -0.18844
       8 -> 27         0.14706
      10 -> 27         0.43660
      11 -> 29         0.47853

 Excited State  85:      Singlet-A'    24.6100 eV   50.38 nm  f=0.1034  <S**2>=0.000
       7 -> 22        -0.14016
       8 -> 22         0.49524
       9 -> 24         0.19055
      10 -> 26         0.24774
      11 -> 30         0.10950
      12 -> 29         0.14478

 Excited State  86:      Singlet-A'    24.6821 eV   50.23 nm  f=0.0269  <S**2>=0.000
       7 -> 22        -0.12402
       8 -> 23         0.62540
       9 -> 24         0.14775
      10 -> 25        -0.12728
      10 -> 26        -0.10370

 Excited State  87:      Singlet-A"    24.9975 eV   49.60 nm  f=0.0010  <S**2>=0.000
       7 -> 24        -0.12284
       9 -> 25         0.20853
      12 -> 30         0.63884

 Excited State  88:      Singlet-A'    25.0802 eV   49.44 nm  f=0.1150  <S**2>=0.000
       6 -> 19         0.49095
       6 -> 20         0.15761
       7 -> 21        -0.15397
       7 -> 22        -0.12995
       7 -> 23        -0.13766
      10 -> 26        -0.14499
      10 -> 28        -0.29884

 Excited State  89:      Singlet-A"    25.1329 eV   49.33 nm  f=0.0023  <S**2>=0.000
       9 -> 25         0.49129
       9 -> 26        -0.44036
      12 -> 30        -0.21310

 Excited State  90:      Singlet-A'    25.2768 eV   49.05 nm  f=0.1370  <S**2>=0.000
       6 -> 19         0.29085
       7 -> 23        -0.28603
       8 -> 23         0.13809
       8 -> 28        -0.10151
      10 -> 25        -0.10737
      10 -> 28         0.47706

 Excited State  91:      Singlet-A"    25.2773 eV   49.05 nm  f=0.0017  <S**2>=0.000
       5 -> 13        -0.11038
       9 -> 25         0.42656
       9 -> 26         0.52732

 Excited State  92:      Singlet-A'    25.3571 eV   48.90 nm  f=0.0313  <S**2>=0.000
       7 -> 22         0.59300
       7 -> 23         0.20167
       8 -> 22         0.14906
       9 -> 27        -0.11645
      10 -> 26        -0.12406

 Excited State  93:      Singlet-A"    25.6122 eV   48.41 nm  f=0.0036  <S**2>=0.000
       8 -> 24         0.61406
      10 -> 24         0.11433
      10 -> 27         0.27900
      10 -> 30        -0.10633

 Excited State  94:      Singlet-A'    25.8184 eV   48.02 nm  f=0.0117  <S**2>=0.000
       7 -> 22        -0.23599
       7 -> 23         0.38888
       7 -> 25        -0.10084
       8 -> 26         0.17550
      10 -> 26        -0.27030
      10 -> 28         0.22866
      10 -> 29        -0.15081

 Excited State  95:      Singlet-A"    26.0356 eV   47.62 nm  f=0.0031  <S**2>=0.000
       7 -> 24         0.67446
      12 -> 30         0.12593

 Excited State  96:      Singlet-A'    26.1050 eV   47.49 nm  f=0.1340  <S**2>=0.000
       6 -> 19         0.27803
       6 -> 20        -0.23206
       7 -> 23         0.33076
       8 -> 22        -0.12408
      10 -> 26         0.24349

 The electronic state is 1-A'.
 Alpha  occ. eigenvalues --  -19.31530 -19.25451 -10.42787  -1.23053  -1.14006
 Alpha  occ. eigenvalues --   -0.77025  -0.62112  -0.59079  -0.55252  -0.50350
 Alpha  occ. eigenvalues --   -0.42744  -0.38522
 Alpha virt. eigenvalues --    0.06741   0.11281   0.15909   0.21331   0.24336
 Alpha virt. eigenvalues --    0.28435   0.35665   0.40135   0.44688   0.49454
 Alpha virt. eigenvalues --    0.50342   0.53821   0.56534   0.60507   0.60566

 Mulliken charges:
               1
     1  O   -0.381252
     2  C    0.261733
     3  O   -0.322669
     4  H    0.338586
     5  H    0.103602
 Sum of Mulliken charges =  -0.00000

 Dipole moment (field-independent basis, Debye):
    X=             -1.5337    Y=             -0.3533    Z=             -0.0000  Tot=              1.5738
 Quadrupole moment (field-independent basis, Debye-Ang):
   XX=            -22.0108   YY=            -12.5960   ZZ=            -16.8803
   XY=             -0.0276   XZ=              0.0000   YZ=             -0.0000

 Normal termination of Gaussian 16 at Sat Aug 14 06:24:41 2021.
