 Gaussian 16, Revision C.01,
 Gaussian 16:  EM64L-G16RevC.01  3-Jul-2019

 ----------------------------------------------------------------------
 #P TD(Nstates=10000) wB97XD/def2TZVP SCF(maxcycles=100) Int(Grid=ultra
 fine)
 ----------------------------------------------------------------------

 ---------------------
 xGDB7_00001_tier4.com
 ---------------------
 Symbolic Z-matrix:
 Charge =  0 Multiplicity = 1

                         Standard orientation:
 ---------------------------------------------------------------------
 Center     Atomic      Atomic             Coordinates (Angstroms)
 Number     Number       Type             X           Y           Z
 ---------------------------------------------------------------------
      1          6           0        0.000000    0.000000   -0.524273
      2          8           0        0.000000    0.000000    0.670793
      3          1           0        0.000000    0.939221   -1.110351
      4          1           0       -0.000000   -0.939221   -1.110351
 ---------------------------------------------------------------------

 SCF Done:  E(RwB97XD) =  -114.511695717     A.U. after   12 cycles

 Excitation energies and oscillator strengths:

 Excited State   1:      Singlet-A2     4.0557 eV  305.70 nm  f=0.0000  <S**2>=0.000
       8 ->  9         0.70534
 This state for optimization and/or second-order correction.
 Total Energy, E(TD-HF/TD-DFT) =  -114.362651749
 Copying the excited state density for this state as the 1-particle RhoCI density.

 Excited State   2:      Singlet-B2     8.4672 eV  146.43 nm  f=0.1086  <S**2>=0.000
       8 -> 10         0.69421
       8 -> 11         0.12287

 Excited State   3:      Singlet-B1     9.2840 eV  133.55 nm  f=0.0002  <S**2>=0.000
       6 ->  9         0.70429

 Excited State   4:      Singlet-B2     9.5943 eV  129.23 nm  f=0.0475  <S**2>=0.000
       8 -> 10        -0.12246
       8 -> 11         0.69470

 Excited State   5:      Singlet-A1     9.6720 eV  128.19 nm  f=0.0227  <S**2>=0.000
       7 ->  9         0.58632
       8 -> 12         0.37548

 Excited State   6:      Singlet-A2    10.3928 eV  119.30 nm  f=0.0000  <S**2>=0.000
       5 ->  9         0.70420

 Excited State   7:      Singlet-A1    10.5474 eV  117.55 nm  f=0.3811  <S**2>=0.000
       7 ->  9        -0.34640
       8 -> 12         0.58481
       8 -> 15         0.17348

 Excited State   8:      Singlet-B1    12.1026 eV  102.44 nm  f=0.0157  <S**2>=0.000
       7 -> 10         0.69212
       7 -> 11         0.12252

 Excited State   9:      Singlet-A2    12.2625 eV  101.11 nm  f=0.0000  <S**2>=0.000
       8 -> 14         0.70488

 Excited State  10:      Singlet-B2    12.5668 eV   98.66 nm  f=0.0223  <S**2>=0.000
       8 -> 13         0.70113

 Excited State  11:      Singlet-B1    13.2925 eV   93.27 nm  f=0.0929  <S**2>=0.000
       4 ->  9         0.10134
       7 -> 10        -0.11362
       7 -> 11         0.68806

 Excited State  12:      Singlet-A2    13.6680 eV   90.71 nm  f=0.0000  <S**2>=0.000
       7 -> 12         0.70120

 Excited State  13:      Singlet-A1    13.7924 eV   89.89 nm  f=0.0131  <S**2>=0.000
       6 -> 10         0.67252
       8 -> 15         0.20028

 Excited State  14:      Singlet-A1    14.2918 eV   86.75 nm  f=0.0827  <S**2>=0.000
       6 -> 10        -0.17921
       6 -> 11        -0.20220
       7 ->  9         0.11656
       8 -> 12        -0.10595
       8 -> 15         0.61984

 Excited State  15:      Singlet-B2    14.5687 eV   85.10 nm  f=0.3269  <S**2>=0.000
       5 -> 10         0.69568

 Excited State  16:      Singlet-A1    14.8122 eV   83.70 nm  f=0.3011  <S**2>=0.000
       6 -> 11         0.66949
       8 -> 15         0.16370

 Excited State  17:      Singlet-B2    15.2725 eV   81.18 nm  f=0.0420  <S**2>=0.000
       6 -> 12         0.69458

 Excited State  18:      Singlet-B1    15.4386 eV   80.31 nm  f=0.0732  <S**2>=0.000
       4 ->  9         0.63855
       7 -> 13        -0.26420

 Excited State  19:      Singlet-A1    15.7928 eV   78.51 nm  f=0.0019  <S**2>=0.000
       5 -> 12        -0.34249
       7 -> 14         0.60275

 Excited State  20:      Singlet-B2    15.9817 eV   77.58 nm  f=0.0906  <S**2>=0.000
       5 -> 11         0.69422

 Excited State  21:      Singlet-B1    16.2013 eV   76.53 nm  f=0.3144  <S**2>=0.000
       4 ->  9         0.26097
       7 -> 13         0.65233

 Excited State  22:      Singlet-A1    17.0616 eV   72.67 nm  f=0.0008  <S**2>=0.000
       4 -> 10         0.20247
       5 -> 12         0.57689
       7 -> 14         0.31524

 Excited State  23:      Singlet-B2    17.1940 eV   72.11 nm  f=0.0001  <S**2>=0.000
       8 -> 16         0.59122
       8 -> 17         0.36270

 Excited State  24:      Singlet-A2    17.2465 eV   71.89 nm  f=0.0000  <S**2>=0.000
       7 -> 15         0.69883

 Excited State  25:      Singlet-B1    17.5013 eV   70.84 nm  f=0.0750  <S**2>=0.000
       6 -> 14         0.70016

 Excited State  26:      Singlet-A1    17.7125 eV   70.00 nm  f=0.0474  <S**2>=0.000
       6 -> 13         0.69290

 Excited State  27:      Singlet-B2    18.1639 eV   68.26 nm  f=0.0012  <S**2>=0.000
       5 -> 13        -0.31902
       8 -> 16        -0.32691
       8 -> 17         0.51413
       8 -> 19         0.10222

 Excited State  28:      Singlet-A2    18.3167 eV   67.69 nm  f=0.0000  <S**2>=0.000
       5 -> 14         0.68846
       8 -> 20         0.12751

 Excited State  29:      Singlet-B2    18.7396 eV   66.16 nm  f=0.0275  <S**2>=0.000
       5 -> 13         0.52291
       6 -> 15        -0.14567
       8 -> 16        -0.12443
       8 -> 17         0.14208
       8 -> 19         0.40330

 Excited State  30:      Singlet-B2    18.9264 eV   65.51 nm  f=0.0013  <S**2>=0.000
       6 -> 15         0.67357
       8 -> 19         0.17907

 Excited State  31:      Singlet-A1    18.9347 eV   65.48 nm  f=0.0590  <S**2>=0.000
       4 -> 10         0.41951
       4 -> 11        -0.16974
       5 -> 15         0.10274
       6 -> 19        -0.10613
       7 -> 14        -0.11080
       8 -> 18         0.48377

 Excited State  32:      Singlet-A1    19.1481 eV   64.75 nm  f=0.2357  <S**2>=0.000
       4 -> 10         0.50453
       5 -> 12        -0.10285
       8 -> 18        -0.44643

 Excited State  33:      Singlet-B2    19.5102 eV   63.55 nm  f=0.1225  <S**2>=0.000
       5 -> 13        -0.32390
       8 -> 16         0.11688
       8 -> 17        -0.25789
       8 -> 19         0.53234

 Excited State  34:      Singlet-A2    19.8196 eV   62.56 nm  f=0.0000  <S**2>=0.000
       5 -> 14        -0.12662
       8 -> 20         0.69052

 Excited State  35:      Singlet-A1    19.8904 eV   62.33 nm  f=0.1831  <S**2>=0.000
       4 -> 11         0.47682
       5 -> 15        -0.46695
       8 -> 18         0.17671

 Excited State  36:      Singlet-B2    20.0856 eV   61.73 nm  f=0.0245  <S**2>=0.000
       4 -> 12         0.68579

 Excited State  37:      Singlet-A1    20.3399 eV   60.96 nm  f=0.0509  <S**2>=0.000
       4 -> 11         0.46846
       5 -> 15         0.50337

 Excited State  38:      Singlet-B1    20.8935 eV   59.34 nm  f=0.0199  <S**2>=0.000
       7 -> 16         0.63291
       7 -> 17         0.30535

 Excited State  39:      Singlet-B1    21.5397 eV   57.56 nm  f=0.0051  <S**2>=0.000
       7 -> 16         0.21823
       7 -> 17        -0.43019
       7 -> 19        -0.12291
       8 -> 21         0.49735

 Excited State  40:      Singlet-B1    21.7980 eV   56.88 nm  f=0.0296  <S**2>=0.000
       4 -> 14        -0.27184
       7 -> 16        -0.20739
       7 -> 17         0.39200
       8 -> 21         0.46869

 Excited State  41:      Singlet-A2    21.9317 eV   56.53 nm  f=0.0000  <S**2>=0.000
       7 -> 18         0.70170

 Excited State  42:      Singlet-A1    22.0043 eV   56.35 nm  f=0.0598  <S**2>=0.000
       6 -> 16         0.54314
       6 -> 17         0.29214
       7 -> 20        -0.10784
       8 -> 22         0.29324

 Excited State  43:      Singlet-A1    22.3329 eV   55.52 nm  f=0.0215  <S**2>=0.000
       4 -> 13         0.69285

 Excited State  44:      Singlet-B1    22.3435 eV   55.49 nm  f=0.0014  <S**2>=0.000
       4 -> 14         0.61125
       7 -> 17         0.23713
       7 -> 19        -0.18036
       8 -> 21         0.14272

 Excited State  45:      Singlet-B1    22.7441 eV   54.51 nm  f=0.0005  <S**2>=0.000
       4 -> 14         0.18985
       7 -> 19         0.66314

 Excited State  46:      Singlet-A1    22.8718 eV   54.21 nm  f=0.0269  <S**2>=0.000
       6 -> 16        -0.20554
       7 -> 20         0.43917
       8 -> 22         0.50130

 Excited State  47:      Singlet-A1    23.3565 eV   53.08 nm  f=0.1286  <S**2>=0.000
       6 -> 16        -0.35806
       6 -> 17         0.54716
       7 -> 20        -0.23872

 Excited State  48:      Singlet-B2    23.6994 eV   52.32 nm  f=0.0234  <S**2>=0.000
       5 -> 16        -0.20484
       6 -> 18         0.64778
       7 -> 21         0.13709

 Excited State  49:      Singlet-B2    24.0576 eV   51.54 nm  f=0.0149  <S**2>=0.000
       4 -> 15         0.63543
       5 -> 16        -0.23549
       5 -> 17         0.10230
       6 -> 18        -0.13184

 Excited State  50:      Singlet-B2    24.3158 eV   50.99 nm  f=0.0004  <S**2>=0.000
       4 -> 15         0.11391
       5 -> 16         0.46079
       5 -> 17         0.49510

 Excited State  51:      Singlet-B2    24.4448 eV   50.72 nm  f=0.0334  <S**2>=0.000
       4 -> 15        -0.25799
       5 -> 16        -0.39422
       5 -> 17         0.45843
       7 -> 21        -0.21274

 Excited State  52:      Singlet-B1    24.6124 eV   50.37 nm  f=0.0425  <S**2>=0.000
       6 -> 20         0.69548

 Excited State  53:      Singlet-A1    24.6461 eV   50.31 nm  f=0.4548  <S**2>=0.000
       5 -> 18        -0.35962
       6 -> 17        -0.17010
       6 -> 19         0.39957
       7 -> 20        -0.31610
       8 -> 22         0.26089

 Excited State  54:      Singlet-B2    25.2653 eV   49.07 nm  f=0.0016  <S**2>=0.000
       5 -> 19        -0.20138
       7 -> 21        -0.37946
       8 -> 23         0.54613

 Excited State  55:      Singlet-B2    25.3249 eV   48.96 nm  f=0.1186  <S**2>=0.000
       5 -> 19         0.54424
       7 -> 21         0.22951
       8 -> 23         0.36366

 Excited State  56:      Singlet-A1    25.8958 eV   47.88 nm  f=0.0122  <S**2>=0.000
       4 -> 16        -0.13403
       4 -> 17         0.18863
       5 -> 18         0.54894
       6 -> 17        -0.17406
       6 -> 19         0.15246
       7 -> 20        -0.16192
       8 -> 22         0.16399

 Excited State  57:      Singlet-A2    26.1430 eV   47.43 nm  f=0.0000  <S**2>=0.000
       7 -> 22         0.70272

 Excited State  58:      Singlet-A1    26.5387 eV   46.72 nm  f=0.1688  <S**2>=0.000
       3 -> 11         0.10141
       5 -> 22         0.14200
       6 -> 17         0.14580
       6 -> 19         0.48935
       6 -> 23        -0.11677
       7 -> 20         0.28364
       8 -> 22        -0.20454
       8 -> 26        -0.13971

 Excited State  59:      Singlet-B1    26.5790 eV   46.65 nm  f=0.0003  <S**2>=0.000
       3 ->  9         0.68830

 Excited State  60:      Singlet-B2    26.5796 eV   46.65 nm  f=0.7038  <S**2>=0.000
       5 -> 16        -0.13927
       5 -> 17         0.11212
       5 -> 19        -0.37364
       6 -> 18        -0.17208
       7 -> 21         0.46226
       8 -> 23         0.23911

 Excited State  61:      Singlet-A2    26.7117 eV   46.42 nm  f=0.0000  <S**2>=0.000
       6 -> 21         0.69924

 Excited State  62:      Singlet-A2    26.7682 eV   46.32 nm  f=0.0000  <S**2>=0.000
       5 -> 20         0.68876
       6 -> 21        -0.10048

 Excited State  63:      Singlet-B2    27.3642 eV   45.31 nm  f=0.0672  <S**2>=0.000
       6 -> 22         0.69027

 Excited State  64:      Singlet-A2    27.4464 eV   45.17 nm  f=0.0000  <S**2>=0.000
       8 -> 24         0.70040

 Excited State  65:      Singlet-B2    28.3221 eV   43.78 nm  f=0.1184  <S**2>=0.000
       8 -> 25         0.69611

 Excited State  66:      Singlet-A1    28.3982 eV   43.66 nm  f=0.0667  <S**2>=0.000
       4 -> 16         0.59375
       4 -> 17         0.35719

 Excited State  67:      Singlet-B1    28.5098 eV   43.49 nm  f=0.3455  <S**2>=0.000
       5 -> 21         0.67493
       7 -> 25         0.13743

 Excited State  68:      Singlet-B2    28.7731 eV   43.09 nm  f=0.1264  <S**2>=0.000
       4 -> 18         0.69256

 Excited State  69:      Singlet-B1    28.8358 eV   43.00 nm  f=0.0038  <S**2>=0.000
       7 -> 23         0.70179

 Excited State  70:      Singlet-A1    28.8392 eV   42.99 nm  f=0.0411  <S**2>=0.000
       4 -> 16        -0.32915
       4 -> 17         0.54202
       4 -> 19         0.11065
       5 -> 18        -0.16601
       7 -> 24         0.14232

 Excited State  71:      Singlet-A1    29.5342 eV   41.98 nm  f=0.0177  <S**2>=0.000
       4 -> 19         0.33776
       5 -> 22         0.58577
       7 -> 24         0.12261

 Excited State  72:      Singlet-A1    30.1598 eV   41.11 nm  f=0.0015  <S**2>=0.000
       3 -> 10        -0.14452
       4 -> 17        -0.13647
       4 -> 19         0.52105
       5 -> 22        -0.29447
       6 -> 23        -0.17122
       7 -> 24         0.21219
       8 -> 26        -0.10158

 Excited State  73:      Singlet-A1    30.4741 eV   40.69 nm  f=0.0002  <S**2>=0.000
       3 -> 10         0.62360
       3 -> 11         0.13800
       4 -> 19         0.13197
       6 -> 23         0.18479
       8 -> 26        -0.12679

 Excited State  74:      Singlet-A1    30.6817 eV   40.41 nm  f=0.0000  <S**2>=0.000
       3 -> 10        -0.26985
       4 -> 19         0.11090
       6 -> 23         0.58148
       7 -> 24        -0.17195
       8 -> 26        -0.17143

 Excited State  75:      Singlet-B1    30.8551 eV   40.18 nm  f=0.0578  <S**2>=0.000
       4 -> 20         0.69960

 Excited State  76:      Singlet-A1    31.7830 eV   39.01 nm  f=0.0380  <S**2>=0.000
       3 -> 11        -0.38155
       4 -> 19        -0.17606
       6 -> 23         0.11154
       7 -> 24         0.40907
       8 -> 26        -0.35716

 Excited State  77:      Singlet-A2    31.8508 eV   38.93 nm  f=0.0000  <S**2>=0.000
       4 -> 21         0.70574

 Excited State  78:      Singlet-B2    32.0396 eV   38.70 nm  f=0.0649  <S**2>=0.000
       3 -> 12         0.31967
       5 -> 23         0.61966

 Excited State  79:      Singlet-A1    32.0604 eV   38.67 nm  f=0.0000  <S**2>=0.000
       3 -> 11         0.46065
       4 -> 19        -0.15517
       6 -> 23         0.13014
       7 -> 24         0.44079
       8 -> 26         0.15128

 Excited State  80:      Singlet-B1    32.1203 eV   38.60 nm  f=0.0820  <S**2>=0.000
       6 -> 24        -0.37846
       7 -> 25         0.59025

 Excited State  81:      Singlet-B2    32.2285 eV   38.47 nm  f=0.0139  <S**2>=0.000
       3 -> 12         0.62128
       5 -> 23        -0.31701

 Excited State  82:      Singlet-A1    33.1600 eV   37.39 nm  f=0.0543  <S**2>=0.000
       3 -> 11        -0.18229
       6 -> 25         0.55902
       8 -> 26         0.32744

 Excited State  83:      Singlet-B2    33.5251 eV   36.98 nm  f=0.0530  <S**2>=0.000
       4 -> 22         0.69471

 Excited State  84:      Singlet-A2    33.5374 eV   36.97 nm  f=0.0000  <S**2>=0.000
       5 -> 24         0.70595

 Excited State  85:      Singlet-B1    33.5931 eV   36.91 nm  f=0.6329  <S**2>=0.000
       3 -> 14        -0.24470
       5 -> 21        -0.12535
       6 -> 24         0.55173
       7 -> 25         0.32679

 Excited State  86:      Singlet-A1    33.9202 eV   36.55 nm  f=0.1916  <S**2>=0.000
       3 -> 11         0.23427
       4 -> 23        -0.10169
       6 -> 19        -0.12709
       6 -> 23        -0.17526
       6 -> 25         0.41813
       6 -> 27         0.11022
       8 -> 26        -0.38753

 Excited State  87:      Singlet-B1    34.5103 eV   35.93 nm  f=0.0803  <S**2>=0.000
       3 -> 14         0.65842
       6 -> 24         0.18018
       7 -> 25         0.14202

 Excited State  88:      Singlet-A1    34.5672 eV   35.87 nm  f=0.0002  <S**2>=0.000
       3 -> 13         0.70129

 Excited State  89:      Singlet-B2    34.9284 eV   35.50 nm  f=0.0738  <S**2>=0.000
       3 -> 15         0.13627
       5 -> 25         0.66772
       8 -> 27         0.11228

 Excited State  90:      Singlet-B2    35.1033 eV   35.32 nm  f=0.0218  <S**2>=0.000
       5 -> 25        -0.13043
       8 -> 27         0.68511

 Excited State  91:      Singlet-A2    35.4560 eV   34.97 nm  f=0.0000  <S**2>=0.000
       7 -> 26         0.70622

 Excited State  92:      Singlet-B2    35.8769 eV   34.56 nm  f=0.0153  <S**2>=0.000
       3 -> 15         0.67654
       5 -> 25        -0.10742
       6 -> 26        -0.10502
       8 -> 27        -0.11548

 Excited State  93:      Singlet-A1    36.1413 eV   34.31 nm  f=0.0266  <S**2>=0.000
       4 -> 23         0.68011
       4 -> 25         0.10105

 Excited State  94:      Singlet-B2    37.3995 eV   33.15 nm  f=0.0515  <S**2>=0.000
       6 -> 26         0.69057

 Excited State  95:      Singlet-B1    37.8345 eV   32.77 nm  f=0.0892  <S**2>=0.000
       4 -> 24         0.68853
       7 -> 27         0.14078

 Excited State  96:      Singlet-A1    38.4455 eV   32.25 nm  f=0.0073  <S**2>=0.000
       4 -> 25         0.69201

 Excited State  97:      Singlet-B1    38.5077 eV   32.20 nm  f=0.0161  <S**2>=0.000
       4 -> 24        -0.14082
       7 -> 27         0.69056

 Excited State  98:      Singlet-A1    38.7183 eV   32.02 nm  f=0.0353  <S**2>=0.000
       5 -> 26         0.68583

 Excited State  99:      Singlet-A1    39.4897 eV   31.40 nm  f=0.0008  <S**2>=0.000
       3 -> 16         0.63880
       3 -> 17         0.26484
       6 -> 27        -0.12785

 Excited State 100:      Singlet-A1    40.0608 eV   30.95 nm  f=0.0092  <S**2>=0.000
       3 -> 16        -0.23931
       3 -> 17         0.64166
       6 -> 27         0.15264

 Excited State 101:      Singlet-B2    40.5533 eV   30.57 nm  f=0.0024  <S**2>=0.000
       3 -> 18         0.69844

 Excited State 102:      Singlet-A1    41.0307 eV   30.22 nm  f=0.0194  <S**2>=0.000
       3 -> 16         0.12606
       3 -> 19         0.44464
       6 -> 27         0.50928

 Excited State 103:      Singlet-B2    41.1394 eV   30.14 nm  f=0.0479  <S**2>=0.000
       5 -> 27         0.69448
       8 -> 28         0.10209

 Excited State 104:      Singlet-B2    41.7576 eV   29.69 nm  f=0.0536  <S**2>=0.000
       5 -> 27        -0.10948
       8 -> 28         0.68927

 Excited State 105:      Singlet-B1    42.0329 eV   29.50 nm  f=0.0584  <S**2>=0.000
       3 -> 20         0.69734

 Excited State 106:      Singlet-B2    42.2501 eV   29.35 nm  f=0.0008  <S**2>=0.000
       4 -> 26         0.70219

 Excited State 107:      Singlet-A2    42.9563 eV   28.86 nm  f=0.0000  <S**2>=0.000
       8 -> 29         0.69960

 Excited State 108:      Singlet-A1    43.1463 eV   28.74 nm  f=0.1797  <S**2>=0.000
       3 -> 19         0.50867
       3 -> 23         0.13954
       6 -> 27        -0.37149
       7 -> 29        -0.11917
       8 -> 33         0.10988

 Excited State 109:      Singlet-A2    43.5097 eV   28.50 nm  f=0.0000  <S**2>=0.000
       3 -> 21         0.69982

 Excited State 110:      Singlet-B2    44.6960 eV   27.74 nm  f=0.0200  <S**2>=0.000
       3 -> 22         0.69214
       8 -> 31         0.11534

 Excited State 111:      Singlet-B1    45.0381 eV   27.53 nm  f=0.0070  <S**2>=0.000
       7 -> 28         0.69948

 Excited State 112:      Singlet-A1    45.0658 eV   27.51 nm  f=0.0721  <S**2>=0.000
       4 -> 27         0.69888

 Excited State 113:      Singlet-B2    45.4143 eV   27.30 nm  f=0.0086  <S**2>=0.000
       3 -> 22        -0.10929
       8 -> 31         0.68696

 Excited State 114:      Singlet-B1    45.7339 eV   27.11 nm  f=0.5651  <S**2>=0.000
       7 -> 31        -0.16878
       8 -> 30         0.66638

 Excited State 115:      Singlet-A1    46.4198 eV   26.71 nm  f=0.0039  <S**2>=0.000
       6 -> 28        -0.12606
       7 -> 29         0.45818
       8 -> 32         0.50215

 Excited State 116:      Singlet-A1    46.8033 eV   26.49 nm  f=0.0157  <S**2>=0.000
       6 -> 28         0.68904
       8 -> 32         0.10543

 Excited State 117:      Singlet-A1    47.0876 eV   26.33 nm  f=0.0002  <S**2>=0.000
       3 -> 23         0.13601
       7 -> 29        -0.47219
       8 -> 32         0.47306

 Excited State 118:      Singlet-B2    47.6344 eV   26.03 nm  f=0.0095  <S**2>=0.000
       5 -> 28         0.64199
       7 -> 30        -0.26391

 Excited State 119:      Singlet-A1    47.7297 eV   25.98 nm  f=0.0017  <S**2>=0.000
       3 -> 23         0.66080
       7 -> 29         0.13877
       8 -> 33        -0.12185

 Excited State 120:      Singlet-B1    47.8925 eV   25.89 nm  f=0.0110  <S**2>=0.000
       6 -> 29         0.70143

 Excited State 121:      Singlet-A2    48.6294 eV   25.50 nm  f=0.0000  <S**2>=0.000
       5 -> 29         0.70257

 Excited State 122:      Singlet-B2    48.8861 eV   25.36 nm  f=0.0987  <S**2>=0.000
       5 -> 28         0.26947
       7 -> 30         0.58917
       8 -> 34        -0.24178

 Excited State 123:      Singlet-B1    49.4241 eV   25.09 nm  f=0.1978  <S**2>=0.000
       5 -> 30        -0.15672
       7 -> 31         0.66369
       8 -> 30         0.14907

 Excited State 124:      Singlet-A2    49.5030 eV   25.05 nm  f=0.0000  <S**2>=0.000
       6 -> 30         0.70439

 Excited State 125:      Singlet-B1    49.6185 eV   24.99 nm  f=0.0273  <S**2>=0.000
       3 -> 24         0.70337

 Excited State 126:      Singlet-A1    49.8676 eV   24.86 nm  f=0.0212  <S**2>=0.000
       3 -> 23         0.11849
       6 -> 31        -0.12996
       8 -> 33         0.65973

 Excited State 127:      Singlet-A2    50.1977 eV   24.70 nm  f=0.0000  <S**2>=0.000
       7 -> 32         0.69996

 Excited State 128:      Singlet-A1    50.2681 eV   24.66 nm  f=0.0009  <S**2>=0.000
       3 -> 25         0.69979

 Excited State 129:      Singlet-A1    50.8882 eV   24.36 nm  f=0.0235  <S**2>=0.000
       4 -> 28         0.12994
       5 -> 32         0.16202
       6 -> 31         0.65060
       8 -> 33         0.11706

 Excited State 130:      Singlet-B2    51.4305 eV   24.11 nm  f=0.2003  <S**2>=0.000
       5 -> 31        -0.34584
       6 -> 32        -0.10529
       6 -> 33         0.17996
       7 -> 30         0.20039
       8 -> 34         0.53459

 Excited State 131:      Singlet-B1    51.6831 eV   23.99 nm  f=0.0034  <S**2>=0.000
       5 -> 30         0.67021
       7 -> 31         0.13561
       7 -> 34         0.14408

 Excited State 132:      Singlet-B2    51.7460 eV   23.96 nm  f=0.0056  <S**2>=0.000
       5 -> 31        -0.36571
       6 -> 32         0.58038
       8 -> 34        -0.13752

 Excited State 133:      Singlet-A1    52.0193 eV   23.83 nm  f=0.0027  <S**2>=0.000
       4 -> 28         0.61892
       5 -> 32        -0.30985

 Excited State 134:      Singlet-B2    52.1795 eV   23.76 nm  f=0.0600  <S**2>=0.000
       5 -> 31         0.49068

 The electronic state is 1-A1.
 Alpha  occ. eigenvalues --  -19.26834 -10.38500  -1.17133  -0.73293  -0.59205
 Alpha  occ. eigenvalues --   -0.54643  -0.49516  -0.35810
 Alpha virt. eigenvalues --    0.02606   0.13517   0.19253   0.19376   0.28964
 Alpha virt. eigenvalues --    0.29403   0.34716   0.48721   0.49759   0.52117
 Alpha virt. eigenvalues --    0.57702   0.59724   0.65941   0.69011   0.79244

 Mulliken charges:
               1
     1  C    0.091644
     2  O   -0.262038
     3  H    0.085197
     4  H    0.085197
 Sum of Mulliken charges =  -0.00000

 Dipole moment (field-independent basis, Debye):
    X=             -0.0000    Y=              0.0000    Z=             -2.3668  Tot=              2.3668
 Quadrupole moment (field-independent basis, Debye-Ang):
   XX=            -11.5736   YY=            -11.5066   ZZ=            -12.1156
   XY=              0.0000   XZ=              0.0000   YZ=             -0.0000

 Normal termination of Gaussian 16 at Sat Aug 14 06:16:25 2021.
