 Gaussian 16, Revision C.01,
 Gaussian 16:  EM64L-G16RevC.01  3-Jul-2019

 ----------------------------------------------------------------------
 #P TD(Nstates=10000) wB97XD/def2TZVP SCF(maxcycles=100) Int(Grid=ultra
 fine)
 ----------------------------------------------------------------------

 ---------------------
 xGDB7_00001_tier4.com
 ---------------------
 Symbolic Z-matrix:
 Charge =  0 Multiplicity = 1

                         Standard orientation:
 ---------------------------------------------------------------------
 Center     Atomic      Atomic             Coordinates (Angstroms)
 Number     Number       Type             X           Y           Z
 ---------------------------------------------------------------------
      1          8           0        0.000000    0.000000    0.596896
      2          8           0        0.000000    0.000000   -0.596896
 ---------------------------------------------------------------------

 SCF Done:  E(RwB97XD) =  -150.278489540     A.U. after   10 cycles

 Excitation energies and oscillator strengths:

 Excited state symmetry could not be determined.
 Excited State   1:      Singlet-?Sym    0.0054 eV 227931.72 nm  f=0.0000  <S**2>=0.000
       8 ->  9        -4.98847
       8 -> 16         0.11016
       8 <-  9        -4.93815
       8 <- 16         0.10826
 This state for optimization and/or second-order correction.
 Total Energy, E(TD-HF/TD-DFT) =  -150.278289640
 Copying the excited state density for this state as the 1-particle RhoCI density.

 Excited state symmetry could not be determined.
 Excited State   2:      Singlet-?Sym    6.8396 eV  181.27 nm  f=0.0000  <S**2>=0.000
       7 ->  9         0.70688

 Excited state symmetry could not be determined.
 Excited State   3:      Singlet-?Sym    7.7253 eV  160.49 nm  f=0.0000  <S**2>=0.000
       5 ->  9         0.70714

 Excited state symmetry could not be determined.
 Excited State   4:      Singlet-?Sym   10.2202 eV  121.31 nm  f=0.1797  <S**2>=0.000
       5 -> 10         0.13870
       6 ->  9         0.68487
       8 -> 13         0.11285
       6 <-  9        -0.10303

 Excited state symmetry could not be determined.
 Excited State   5:      Singlet-?Sym   10.4493 eV  118.65 nm  f=0.0009  <S**2>=0.000
       8 -> 10         0.70153

 Excited state symmetry could not be determined.
 Excited State   6:      Singlet-?Sym   14.0883 eV   88.01 nm  f=0.0000  <S**2>=0.000
       8 -> 11         0.70320

 Excited state symmetry could not be determined.
 Excited State   7:      Singlet-?Sym   15.5040 eV   79.97 nm  f=0.0000  <S**2>=0.000
       8 -> 12         0.70569

 Excited state symmetry could not be determined.
 Excited State   8:      Singlet-?Sym   16.2848 eV   76.13 nm  f=0.0976  <S**2>=0.000
       5 -> 10        -0.16462
       8 -> 13         0.67918

 Excited state symmetry could not be determined.
 Excited State   9:      Singlet-?Sym   16.7329 eV   74.10 nm  f=0.1364  <S**2>=0.000
       4 ->  9         0.70506

 Excited state symmetry could not be determined.
 Excited State  10:      Singlet-?Sym   16.7649 eV   73.95 nm  f=0.0819  <S**2>=0.000
       8 -> 15         0.69719

 Excited state symmetry could not be determined.
 Excited State  11:      Singlet-?Sym   17.0998 eV   72.51 nm  f=0.0000  <S**2>=0.000
       7 -> 10        -0.19073
       8 -> 14         0.67729

 Excited state symmetry could not be determined.
 Excited State  12:      Singlet-?Sym   17.8277 eV   69.55 nm  f=0.0000  <S**2>=0.000
       6 -> 10         0.69795
       6 -> 15         0.10378

 Excited state symmetry could not be determined.
 Excited State  13:      Singlet-?Sym   17.9705 eV   68.99 nm  f=0.0000  <S**2>=0.000
       7 -> 10         0.67277
       7 -> 15         0.11458
       8 -> 14         0.18284

 Excited state symmetry could not be determined.
 Excited State  14:      Singlet-?Sym   18.8885 eV   65.64 nm  f=0.0000  <S**2>=0.000
       7 -> 12         0.10542
       8 -> 16         0.69874

 Excited State  15:      Singlet-SGU   19.7072 eV   62.91 nm  f=0.9107  <S**2>=0.000
       5 -> 10         0.65827
       5 -> 15        -0.13618
       6 ->  9        -0.13670
       8 -> 13         0.13005

 Excited state symmetry could not be determined.
 Excited State  16:      Singlet-?Sym   19.7321 eV   62.83 nm  f=0.0000  <S**2>=0.000
       6 -> 12        -0.16183
       8 -> 17         0.67635

 Excited state symmetry could not be determined.
 Excited State  17:      Singlet-?Sym   21.7134 eV   57.10 nm  f=0.2735  <S**2>=0.000
       6 -> 11         0.70363

 Excited state symmetry could not be determined.
 Excited State  18:      Singlet-?Sym   21.7667 eV   56.96 nm  f=0.2448  <S**2>=0.000
       7 -> 11         0.70027

 Excited State  19:      Singlet-SGG   22.5483 eV   54.99 nm  f=0.0000  <S**2>=0.000
       4 -> 10         0.12401
       5 -> 11         0.64643
       6 -> 12         0.23324

 Excited state symmetry could not be determined.
 Excited State  20:      Singlet-?Sym   23.0053 eV   53.89 nm  f=0.0000  <S**2>=0.000
       6 -> 13         0.28198
       7 -> 12         0.64046
       8 -> 16        -0.10152

 Excited state symmetry could not be determined.
 Excited State  21:      Singlet-?Sym   23.0443 eV   53.80 nm  f=0.0000  <S**2>=0.000
       5 -> 11        -0.10053
       6 -> 12         0.49949
       7 -> 13        -0.47418
       8 -> 17         0.10957

 Excited state symmetry could not be determined.
 Excited State  22:      Singlet-?Sym   23.4136 eV   52.95 nm  f=0.0000  <S**2>=0.000
       6 -> 13         0.64835
       7 -> 12        -0.28044

 Excited state symmetry could not be determined.
 Excited State  23:      Singlet-?Sym   23.5775 eV   52.59 nm  f=0.0678  <S**2>=0.000
       5 -> 12         0.70357

 Excited state symmetry could not be determined.
 Excited State  24:      Singlet-?Sym   23.9819 eV   51.70 nm  f=0.0786  <S**2>=0.000
       5 -> 13         0.70497

 Excited State  25:      Singlet-SGG   24.0669 eV   51.52 nm  f=0.0000  <S**2>=0.000
       4 -> 10        -0.16333
       5 -> 11         0.18101
       5 -> 14         0.44476
       6 -> 12        -0.27585
       7 -> 13        -0.40056

 Excited state symmetry could not be determined.
 Excited State  26:      Singlet-?Sym   24.3690 eV   50.88 nm  f=0.0000  <S**2>=0.000
       6 -> 10        -0.10350
       6 -> 15         0.69737

 Excited state symmetry could not be determined.
 Excited State  27:      Singlet-?Sym   24.4856 eV   50.64 nm  f=0.0000  <S**2>=0.000
       7 -> 10        -0.10146
       7 -> 15         0.69519

 Excited state symmetry could not be determined.
 Excited State  28:      Singlet-?Sym   24.9205 eV   49.75 nm  f=0.0419  <S**2>=0.000
       6 -> 14         0.70092

 Excited state symmetry could not be determined.
 Excited State  29:      Singlet-?Sym   24.9275 eV   49.74 nm  f=0.0481  <S**2>=0.000
       7 -> 14         0.69514

 Excited state symmetry could not be determined.
 Excited State  30:      Singlet-?Sym   25.9655 eV   47.75 nm  f=0.1348  <S**2>=0.000
       8 -> 18         0.70271

 Excited State  31:      Singlet-SGU   25.9710 eV   47.74 nm  f=0.0862  <S**2>=0.000
       5 -> 15         0.48599
       6 -> 16        -0.42986
       7 -> 17        -0.25788

 Excited State  32:      Singlet-SGG   26.1027 eV   47.50 nm  f=0.0000  <S**2>=0.000
       4 -> 10         0.53545
       5 -> 11        -0.15566
       5 -> 14         0.40604

 Excited state symmetry could not be determined.
 Excited State  33:      Singlet-?Sym   26.5055 eV   46.78 nm  f=0.0000  <S**2>=0.000
       6 -> 17         0.44076
       7 -> 16         0.55150

 Excited state symmetry could not be determined.
 Excited State  34:      Singlet-?Sym   26.5060 eV   46.78 nm  f=0.0031  <S**2>=0.000
       6 -> 16        -0.43648
       7 -> 17         0.54721

 Excited state symmetry could not be determined.
 Excited State  35:      Singlet-?Sym   26.6940 eV   46.45 nm  f=0.0000  <S**2>=0.000
       6 -> 17         0.55283
       7 -> 16        -0.43993

 Excited state symmetry could not be determined.
 Excited State  36:      Singlet-?Sym   26.7601 eV   46.33 nm  f=0.0000  <S**2>=0.000
       4 -> 12         0.11246
       5 -> 16         0.69204

 Excited state symmetry could not be determined.
 Excited State  37:      Singlet-?Sym   26.9495 eV   46.01 nm  f=0.0000  <S**2>=0.000
       5 -> 17         0.70057

 Excited State  38:      Singlet-SGG   27.8152 eV   44.57 nm  f=0.0000  <S**2>=0.000
       4 -> 10         0.40407
       5 -> 14        -0.35452
       6 -> 12        -0.28908
       7 -> 13        -0.30372
       8 -> 17        -0.15439

 Excited State  39:      Singlet-SGU   28.4450 eV   43.59 nm  f=0.0025  <S**2>=0.000
       4 -> 11         0.42117
       5 -> 15         0.35174
       6 -> 16         0.29417
       7 -> 17         0.30438

 Excited state symmetry could not be determined.
 Excited State  40:      Singlet-?Sym   29.0038 eV   42.75 nm  f=0.0000  <S**2>=0.000
       3 ->  9         0.68926

 Excited State  41:      Singlet-SGU   31.0623 eV   39.91 nm  f=0.0038  <S**2>=0.000
       3 -> 10        -0.13109
       4 -> 11         0.52949
       4 -> 14         0.15264
       5 -> 10        -0.10850
       5 -> 15        -0.28443
       6 ->  9         0.11032
       6 -> 16        -0.15702
       7 -> 17        -0.16967
       8 -> 22        -0.14148

 Excited state symmetry could not be determined.
 Excited State  42:      Singlet-?Sym   31.0950 eV   39.87 nm  f=0.0000  <S**2>=0.000
       4 -> 12         0.69062
       5 -> 16        -0.10326

 Excited state symmetry could not be determined.
 Excited State  43:      Singlet-?Sym   31.4465 eV   39.43 nm  f=0.0000  <S**2>=0.000
       4 -> 13         0.69958

 Excited State  44:      Singlet-SGU   32.5853 eV   38.05 nm  f=0.1411  <S**2>=0.000
       4 -> 11        -0.14690
       4 -> 14         0.66877
       5 -> 18        -0.14252

 Excited State  45:      Singlet-SGG   33.0338 eV   37.53 nm  f=0.0000  <S**2>=0.000
       4 -> 15         0.69909

 Excited state symmetry could not be determined.
 Excited State  46:      Singlet-?Sym   33.2309 eV   37.31 nm  f=0.0000  <S**2>=0.000
       6 -> 18         0.70493

 Excited state symmetry could not be determined.
 Excited State  47:      Singlet-?Sym   33.3353 eV   37.19 nm  f=0.0000  <S**2>=0.000
       7 -> 18         0.70643

 Excited State  48:      Singlet-SGU   33.9693 eV   36.50 nm  f=0.0066  <S**2>=0.000
       4 -> 14         0.15175
       5 -> 18         0.68855

 Excited state symmetry could not be determined.
 Excited State  49:      Singlet-?Sym   34.3906 eV   36.05 nm  f=0.1037  <S**2>=0.000
       4 -> 16         0.70491

 Excited state symmetry could not be determined.
 Excited State  50:      Singlet-?Sym   34.5312 eV   35.90 nm  f=0.1002  <S**2>=0.000
       4 -> 17         0.70510

 Excited state symmetry could not be determined.
 Excited State  51:      Singlet-?Sym   38.0818 eV   32.56 nm  f=0.0000  <S**2>=0.000
       8 -> 20         0.70391

 Excited state symmetry could not be determined.
 Excited State  52:      Singlet-?Sym   38.1477 eV   32.50 nm  f=0.0000  <S**2>=0.000
       8 -> 19         0.69968

 Excited state symmetry could not be determined.
 Excited State  53:      Singlet-?Sym   39.3109 eV   31.54 nm  f=0.0000  <S**2>=0.000
       8 -> 21         0.70669

 Excited State  54:      Singlet-SGU   40.6401 eV   30.51 nm  f=0.1465  <S**2>=0.000
       3 -> 10         0.58053
       8 -> 22        -0.39608

 Excited State  55:      Singlet-SGG   41.4820 eV   29.89 nm  f=0.0000  <S**2>=0.000
       4 -> 18         0.69815

 Excited State  56:      Singlet-SGG   43.3527 eV   28.60 nm  f=0.0000  <S**2>=0.000
       3 -> 11         0.69927

 Excited state symmetry could not be determined.
 Excited State  57:      Singlet-?Sym   43.6012 eV   28.44 nm  f=1.1739  <S**2>=0.000
       3 -> 10         0.35442
       3 -> 15        -0.16659
       5 -> 15        -0.13208
       6 ->  9         0.10673
       8 -> 22         0.54848

 Excited state symmetry could not be determined.
 Excited State  58:      Singlet-?Sym   44.4445 eV   27.90 nm  f=0.1332  <S**2>=0.000
       3 -> 12         0.69278
       7 -> 19         0.11494

 Excited state symmetry could not be determined.
 Excited State  59:      Singlet-?Sym   44.7431 eV   27.71 nm  f=0.0067  <S**2>=0.000
       3 -> 13        -0.12420
       6 -> 19         0.49618
       7 -> 20        -0.48209

 Excited state symmetry could not be determined.
 Excited State  60:      Singlet-?Sym   44.7465 eV   27.71 nm  f=0.0000  <S**2>=0.000
       6 -> 20         0.52366
       7 -> 19         0.46875

 Excited state symmetry could not be determined.
 Excited State  61:      Singlet-?Sym   44.7904 eV   27.68 nm  f=0.1436  <S**2>=0.000
       3 -> 13         0.67716
       6 -> 19         0.19979

 Excited state symmetry could not be determined.
 Excited State  62:      Singlet-?Sym   45.4664 eV   27.27 nm  f=0.0000  <S**2>=0.000
       5 -> 19         0.70653

 Excited state symmetry could not be determined.
 Excited State  63:      Singlet-?Sym   45.4871 eV   27.26 nm  f=0.0000  <S**2>=0.000
       5 -> 20         0.70633

 Excited state symmetry could not be determined.
 Excited State  64:      Singlet-?Sym   46.4169 eV   26.71 nm  f=0.1346  <S**2>=0.000
       3 -> 12         0.10010
       5 -> 21         0.43898
       6 -> 20         0.36219
       7 -> 19        -0.40002

 Excited State  65:      Singlet-SGG   46.4708 eV   26.68 nm  f=0.0000  <S**2>=0.000
       3 -> 14         0.69109
       6 -> 21         0.13341

 Excited State  66:      Singlet-SGU   46.6919 eV   26.55 nm  f=0.2953  <S**2>=0.000
       3 -> 15         0.67914
       8 -> 22         0.10565

 Excited state symmetry could not be determined.
 Excited State  67:      Singlet-?Sym   46.6947 eV   26.55 nm  f=0.1810  <S**2>=0.000
       3 -> 13        -0.13290
       5 -> 22        -0.36462
       6 -> 19         0.37791
       7 -> 20         0.43652
       8 -> 24        -0.12076

 Excited state symmetry could not be determined.
 Excited State  68:      Singlet-?Sym   46.8076 eV   26.49 nm  f=0.0000  <S**2>=0.000
       7 -> 21         0.70617

 Excited state symmetry could not be determined.
 Excited State  69:      Singlet-?Sym   47.1592 eV   26.29 nm  f=0.0000  <S**2>=0.000
       6 -> 21         0.54548
       7 -> 22        -0.44207

 Excited state symmetry could not be determined.
 Excited State  70:      Singlet-?Sym   47.5809 eV   26.06 nm  f=0.0000  <S**2>=0.000
       6 -> 22         0.70698

 Excited state symmetry could not be determined.
 Excited State  71:      Singlet-?Sym   48.0444 eV   25.81 nm  f=0.0000  <S**2>=0.000
       3 -> 16         0.70518

 Excited state symmetry could not be determined.
 Excited State  72:      Singlet-?Sym   48.1110 eV   25.77 nm  f=0.0000  <S**2>=0.000
       3 -> 17         0.70519

 Excited state symmetry could not be determined.
 Excited State  73:      Singlet-?Sym   48.3502 eV   25.64 nm  f=0.0481  <S**2>=0.000
       5 -> 21        -0.40316
       6 -> 20         0.12440
       7 -> 19        -0.22828
       8 -> 23         0.51718

 Excited state symmetry could not be determined.
 Excited State  74:      Singlet-?Sym   48.6336 eV   25.49 nm  f=0.0087  <S**2>=0.000
       5 -> 22        -0.44070
       7 -> 20        -0.16089
       8 -> 24         0.52443

 Excited state symmetry could not be determined.
 Excited State  75:      Singlet-?Sym   50.5018 eV   24.55 nm  f=0.0000  <S**2>=0.000
       3 -> 14        -0.11544
       5 -> 25         0.10093
       6 -> 21         0.41703
       7 -> 22         0.54182

 Excited state symmetry could not be determined.
 Excited State  76:      Singlet-?Sym   52.6338 eV   23.56 nm  f=2.1438  <S**2>=0.000
       5 -> 21         0.37565
       6 -> 20        -0.26350
       7 -> 19         0.22573
       8 -> 23         0.46671

 Excited state symmetry could not be determined.
 Excited State  77:      Singlet-?Sym   52.6660 eV   23.54 nm  f=1.8689  <S**2>=0.000
       5 -> 22         0.40814
       6 -> 19         0.24973
       7 -> 20         0.21285
       7 -> 25        -0.10960
       8 -> 24         0.44498

 Excited state symmetry could not be determined.
 Excited State  78:      Singlet-?Sym   52.9566 eV   23.41 nm  f=0.0000  <S**2>=0.000
       4 -> 19         0.70168

 Excited state symmetry could not be determined.
 Excited State  79:      Singlet-?Sym   52.9728 eV   23.41 nm  f=0.0005  <S**2>=0.000
       4 -> 20         0.70148

 Excited state symmetry could not be determined.
 Excited State  80:      Singlet-?Sym   54.6507 eV   22.69 nm  f=0.0000  <S**2>=0.000
       4 -> 22        -0.13419
       8 -> 25         0.68214

 Excited state symmetry could not be determined.
 Excited State  81:      Singlet-?Sym   55.0968 eV   22.50 nm  f=0.0000  <S**2>=0.000
       4 -> 21         0.66575
       6 -> 24         0.17167
       7 -> 23        -0.16234

 Excited State  82:      Singlet-SGU   55.2080 eV   22.46 nm  f=0.0470  <S**2>=0.000
       3 -> 18         0.69835

 Excited state symmetry could not be determined.
 Excited State  83:      Singlet-?Sym   55.7818 eV   22.23 nm  f=0.0000  <S**2>=0.000
       4 -> 22         0.63072
       6 -> 23        -0.24526
       7 -> 24        -0.19044

 Excited state symmetry could not be determined.
 Excited State  84:      Singlet-?Sym   56.1886 eV   22.07 nm  f=0.0000  <S**2>=0.000
       6 -> 24         0.50466
       7 -> 23         0.49466

 Excited state symmetry could not be determined.
 Excited State  85:      Singlet-?Sym   56.1926 eV   22.06 nm  f=0.0000  <S**2>=0.000
       6 -> 23        -0.49580
       7 -> 24         0.50190

 Excited state symmetry could not be determined.
 Excited State  86:      Singlet-?Sym   57.0103 eV   21.75 nm  f=0.0000  <S**2>=0.000
       5 -> 23         0.70166

 Excited state symmetry could not be determined.
 Excited State  87:      Singlet-?Sym   57.0398 eV   21.74 nm  f=0.0000  <S**2>=0.000
       5 -> 24         0.70149

 Excited state symmetry could not be determined.
 Excited State  88:      Singlet-?Sym   58.2821 eV   21.27 nm  f=0.0000  <S**2>=0.000
       4 -> 21         0.23424
       6 -> 24        -0.46015
       7 -> 23         0.47503

 Excited state symmetry could not be determined.
 Excited State  89:      Singlet-?Sym   58.6091 eV   21.15 nm  f=0.0000  <S**2>=0.000
       4 -> 22         0.28444
       6 -> 23         0.42901
       7 -> 24         0.44812
       8 -> 25         0.16303

 Excited state symmetry could not be determined.
 Excited State  90:      Singlet-?Sym   61.4768 eV   20.17 nm  f=0.0000  <S**2>=0.000
       8 -> 26         0.70477

 Excited state symmetry could not be determined.
 Excited State  91:      Singlet-?Sym   61.7616 eV   20.07 nm  f=0.4261  <S**2>=0.000
       7 -> 25        -0.35004
       8 -> 27         0.59937

 Excited state symmetry could not be determined.
 Excited State  92:      Singlet-?Sym   62.3482 eV   19.89 nm  f=0.0000  <S**2>=0.000
       5 -> 25         0.43432
       8 -> 28         0.55501

 Excited state symmetry could not be determined.
 Excited State  93:      Singlet-?Sym   62.4644 eV   19.85 nm  f=0.2107  <S**2>=0.000
       6 -> 25         0.69920

 Excited state symmetry could not be determined.
 Excited State  94:      Singlet-?Sym   62.8919 eV   19.71 nm  f=0.0421  <S**2>=0.000
       7 -> 25         0.60293
       8 -> 27         0.36409

 Excited state symmetry could not be determined.
 Excited State  95:      Singlet-?Sym   64.6582 eV   19.18 nm  f=0.0000  <S**2>=0.000
       4 -> 23         0.70583

 Excited state symmetry could not be determined.
 Excited State  96:      Singlet-?Sym   64.6719 eV   19.17 nm  f=0.0000  <S**2>=0.000
       4 -> 24         0.70432

 Excited State  97:      Singlet-SGG   65.6896 eV   18.87 nm  f=0.0000  <S**2>=0.000
       3 -> 20        -0.10228
       5 -> 25         0.53835
       8 -> 28        -0.42123

 Excited state symmetry could not be determined.
 Excited State  98:      Singlet-?Sym   66.5218 eV   18.64 nm  f=0.0000  <S**2>=0.000
       3 -> 19         0.70609

 Excited state symmetry could not be determined.
 Excited State  99:      Singlet-?Sym   66.5600 eV   18.63 nm  f=0.0000  <S**2>=0.000
       3 -> 20         0.69893

 Excited state symmetry could not be determined.
 Excited State 100:      Singlet-?Sym   68.3752 eV   18.13 nm  f=0.0000  <S**2>=0.000
       7 -> 26         0.51856
       8 -> 29         0.47553

 Excited State 101:      Singlet-SGU   68.7838 eV   18.03 nm  f=0.0215  <S**2>=0.000
       4 -> 25        -0.31511
       5 -> 27         0.43743
       6 -> 26        -0.41687
       7 -> 28        -0.15312
       8 -> 30        -0.10805

 Excited state symmetry could not be determined.
 Excited State 102:      Singlet-?Sym   69.0728 eV   17.95 nm  f=0.0537  <S**2>=0.000
       4 -> 25        -0.10153
       5 -> 27         0.18683
       6 -> 26         0.48340
       7 -> 28        -0.40897
       8 -> 30        -0.22923

 Excited state symmetry could not be determined.
 Excited State 103:      Singlet-?Sym   69.1083 eV   17.94 nm  f=0.1634  <S**2>=0.000
       3 -> 21         0.70334

 Excited state symmetry could not be determined.
 Excited State 104:      Singlet-?Sym   69.2193 eV   17.91 nm  f=0.0000  <S**2>=0.000
       5 -> 26         0.30643
       6 -> 27         0.63669

 Excited state symmetry could not be determined.
 Excited State 105:      Singlet-?Sym   69.3106 eV   17.89 nm  f=0.0000  <S**2>=0.000
       5 -> 28         0.19038
       7 -> 27         0.67226

 Excited state symmetry could not be determined.
 Excited State 106:      Singlet-?Sym   69.7317 eV   17.78 nm  f=0.0000  <S**2>=0.000
       6 -> 28         0.69686
       8 -> 29        -0.11619

 Excited state symmetry could not be determined.
 Excited State 107:      Singlet-?Sym   69.8056 eV   17.76 nm  f=0.1612  <S**2>=0.000
       3 -> 22         0.70342

 Excited state symmetry could not be determined.
 Excited State 108:      Singlet-?Sym   69.8634 eV   17.75 nm  f=0.0000  <S**2>=0.000
       6 -> 28         0.10352
       7 -> 26        -0.47950
       8 -> 29         0.50785

 Excited state symmetry could not be determined.
 Excited State 109:      Singlet-?Sym   70.3175 eV   17.63 nm  f=0.0000  <S**2>=0.000
       5 -> 26         0.63260
       6 -> 27        -0.30569

 Excited State 110:      Singlet-SGU   70.7868 eV   17.52 nm  f=0.0348  <S**2>=0.000
       4 -> 25         0.42796
       5 -> 27         0.32944
       7 -> 28         0.27160
       8 -> 30        -0.36483

 Excited state symmetry could not be determined.
 Excited State 111:      Singlet-?Sym   70.8971 eV   17.49 nm  f=0.0000  <S**2>=0.000
       5 -> 28         0.67189
       7 -> 27        -0.19674

 Excited State 112:      Singlet-SGU   70.9364 eV   17.48 nm  f=0.1938  <S**2>=0.000
       4 -> 25         0.45039
       6 -> 26        -0.16449
       7 -> 28        -0.42578
       8 -> 30         0.28210

 Excited state symmetry could not be determined.
 Excited State 113:      Singlet-?Sym   73.0829 eV   16.96 nm  f=0.0000  <S**2>=0.000
       8 -> 31         0.69617

 Excited state symmetry could not be determined.
 Excited State 114:      Singlet-?Sym   74.3281 eV   16.68 nm  f=0.1639  <S**2>=0.000
       5 -> 27         0.38590
       6 -> 26         0.24742
       6 -> 32        -0.10061
       7 -> 28         0.22263
       8 -> 30         0.44700

 Excited state symmetry could not be determined.
 Excited State 115:      Singlet-?Sym   76.3454 eV   16.24 nm  f=0.0000  <S**2>=0.000
       6 -> 30         0.11470
       7 -> 29         0.63824
       8 -> 32         0.27908

 Excited state symmetry could not be determined.
 Excited State 116:      Singlet-?Sym   76.4984 eV   16.21 nm  f=0.1883  <S**2>=0.000
       4 -> 26         0.52352
       5 -> 29         0.47182

 Excited state symmetry could not be determined.
 Excited State 117:      Singlet-?Sym   76.6891 eV   16.17 nm  f=0.0000  <S**2>=0.000
       6 -> 29         0.58225
       7 -> 30        -0.35679
       8 -> 34        -0.15049

 Excited state symmetry could not be determined.
 Excited State 118:      Singlet-?Sym   77.2260 eV   16.05 nm  f=0.2123  <S**2>=0.000
       4 -> 28         0.51397
       5 -> 30         0.47300

 Excited State 119:      Singlet-SGG   77.2431 eV   16.05 nm  f=0.0000  <S**2>=0.000
       4 -> 27         0.67443
       7 -> 30        -0.17636

 Unable to determine electronic state:  partially filled degenerate orbitals.
 Alpha  occ. eigenvalues --  -19.40697 -19.40669  -1.40117  -0.89697  -0.63175
 Alpha  occ. eigenvalues --   -0.61696  -0.61576  -0.33936
 Alpha virt. eigenvalues --   -0.09724   0.27998   0.41362   0.46529   0.47772
 Alpha virt. eigenvalues --    0.52012   0.52217   0.58534   0.58674   0.83678
 Alpha virt. eigenvalues --    1.29903   1.30003   1.37504   1.40154   1.71643

 Mulliken charges:
               1
     1  O    0.000000
     2  O    0.000000
 Sum of Mulliken charges =   0.00000

 Dipole moment (field-independent basis, Debye):
    X=              0.0000    Y=             -0.0000    Z=              0.0000  Tot=              0.0000
 Quadrupole moment (field-independent basis, Debye-Ang):
   XX=            -10.8831   YY=             -9.0569   ZZ=            -10.5588
   XY=              0.0000   XZ=              0.0000   YZ=             -0.0000

 Normal termination of Gaussian 16 at Sat Aug 14 06:17:43 2021.
