 Gaussian 16, Revision C.01,
 Gaussian 16:  EM64L-G16RevC.01  3-Jul-2019

 ----------------------------------------------------------------------
 #P TD(Nstates=10000) wB97XD/def2TZVP SCF(maxcycles=100) Int(Grid=ultra
 fine)
 ----------------------------------------------------------------------

 ---------------------
 xGDB7_00001_tier4.com
 ---------------------
 Symbolic Z-matrix:
 Charge =  0 Multiplicity = 1

                         Standard orientation:
 ---------------------------------------------------------------------
 Center     Atomic      Atomic             Coordinates (Angstroms)
 Number     Number       Type             X           Y           Z
 ---------------------------------------------------------------------
      1          8           0       -1.028621   -0.395177   -0.000000
      2          7           0       -0.000000    0.526228   -0.000000
      3          6           0        1.132746   -0.030907    0.000000
      4          1           0       -1.816572    0.151791   -0.000000
      5          1           0        1.994262    0.623439    0.000000
      6          1           0        1.254802   -1.111965    0.000000
 ---------------------------------------------------------------------

 SCF Done:  E(RwB97XD) =  -169.826919317     A.U. after   14 cycles

 Excitation energies and oscillator strengths:

 Excited State   1:      Singlet-A"     5.9576 eV  208.11 nm  f=0.0014  <S**2>=0.000
      11 -> 13         0.70488
 This state for optimization and/or second-order correction.
 Total Energy, E(TD-HF/TD-DFT) =  -169.607981434
 Copying the excited state density for this state as the 1-particle RhoCI density.

 Excited State   2:      Singlet-A'     6.9958 eV  177.23 nm  f=0.1875  <S**2>=0.000
      12 -> 13         0.68885

 Excited State   3:      Singlet-A"     7.8656 eV  157.63 nm  f=0.0014  <S**2>=0.000
      12 -> 14         0.69243

 Excited State   4:      Singlet-A'     8.4088 eV  147.45 nm  f=0.0292  <S**2>=0.000
      11 -> 14         0.69643

 Excited State   5:      Singlet-A"     8.9404 eV  138.68 nm  f=0.0017  <S**2>=0.000
      12 -> 15         0.51351
      12 -> 16         0.41894
      12 -> 17         0.17441
      12 -> 18         0.10593

 Excited State   6:      Singlet-A"     9.5690 eV  129.57 nm  f=0.0093  <S**2>=0.000
      10 -> 13        -0.23042
      12 -> 15        -0.44133
      12 -> 16         0.45784
      12 -> 18         0.13116

 Excited State   7:      Singlet-A"     9.6527 eV  128.45 nm  f=0.0001  <S**2>=0.000
      10 -> 13         0.65595
      12 -> 15        -0.14079
      12 -> 16         0.17309

 Excited State   8:      Singlet-A'     9.7735 eV  126.86 nm  f=0.0906  <S**2>=0.000
      11 -> 15         0.61163
      11 -> 16         0.25059
      11 -> 17         0.18469

 Excited State   9:      Singlet-A'    10.1099 eV  122.64 nm  f=0.1042  <S**2>=0.000
      11 -> 15        -0.30774
      11 -> 16         0.58265
      11 -> 17         0.13885
      11 -> 18         0.15457

 Excited State  10:      Singlet-A"    10.4688 eV  118.43 nm  f=0.0271  <S**2>=0.000
      12 -> 16        -0.16807
      12 -> 17         0.66530

 Excited State  11:      Singlet-A'    10.7361 eV  115.48 nm  f=0.0074  <S**2>=0.000
       9 -> 13         0.57993
      11 -> 16         0.16311
      11 -> 17        -0.32806

 Excited State  12:      Singlet-A'    10.9845 eV  112.87 nm  f=0.2304  <S**2>=0.000
       9 -> 13         0.33423
      11 -> 15        -0.13652
      11 -> 16        -0.14576
      11 -> 17         0.56943

 Excited State  13:      Singlet-A"    11.1308 eV  111.39 nm  f=0.0005  <S**2>=0.000
       8 -> 13         0.68323
      10 -> 13        -0.10406

 Excited State  14:      Singlet-A"    11.5193 eV  107.63 nm  f=0.0426  <S**2>=0.000
       9 -> 14        -0.10479
      12 -> 16        -0.19570
      12 -> 18         0.65021

 Excited State  15:      Singlet-A"    12.0201 eV  103.15 nm  f=0.0065  <S**2>=0.000
       9 -> 14         0.66864
      12 -> 18         0.11195

 Excited State  16:      Singlet-A'    12.1978 eV  101.64 nm  f=0.0668  <S**2>=0.000
      11 -> 16        -0.17902
      11 -> 18         0.64520

 Excited State  17:      Singlet-A'    12.5243 eV   99.00 nm  f=0.3351  <S**2>=0.000
       7 -> 14         0.11712
       8 -> 14        -0.20582
      10 -> 14         0.63430
      11 -> 18        -0.10086

 Excited State  18:      Singlet-A"    12.6073 eV   98.34 nm  f=0.0722  <S**2>=0.000
       7 -> 13         0.18638
      12 -> 19         0.65282

 Excited State  19:      Singlet-A"    12.9686 eV   95.60 nm  f=0.0615  <S**2>=0.000
       7 -> 13         0.62878
       9 -> 15        -0.14779
       9 -> 16        -0.12704
      12 -> 19        -0.20267

 Excited State  20:      Singlet-A'    13.0292 eV   95.16 nm  f=0.0708  <S**2>=0.000
      10 -> 15         0.48798
      11 -> 19         0.34637
      12 -> 20        -0.30964

 Excited State  21:      Singlet-A'    13.1195 eV   94.50 nm  f=0.0670  <S**2>=0.000
      10 -> 15         0.44049
      10 -> 16         0.25498
      11 -> 19        -0.12584
      12 -> 20         0.43478

 Excited State  22:      Singlet-A"    13.1725 eV   94.12 nm  f=0.0051  <S**2>=0.000
       7 -> 13         0.20933
       9 -> 14        -0.10531
       9 -> 15         0.41672
       9 -> 16         0.41999
       9 -> 17         0.18371
       9 -> 18         0.12773
      11 -> 20        -0.10914

 Excited State  23:      Singlet-A'    13.3688 eV   92.74 nm  f=0.0261  <S**2>=0.000
       8 -> 14        -0.16703
      10 -> 15        -0.14969
      10 -> 17        -0.13861
      11 -> 19         0.51557
      12 -> 20         0.35804

 Excited State  24:      Singlet-A"    13.5393 eV   91.57 nm  f=0.0340  <S**2>=0.000
      11 -> 20         0.68964

 Excited State  25:      Singlet-A'    13.5524 eV   91.49 nm  f=0.2463  <S**2>=0.000
       8 -> 14         0.61212
      10 -> 14         0.20202
      11 -> 19         0.21919

 Excited State  26:      Singlet-A'    14.0212 eV   88.43 nm  f=0.0960  <S**2>=0.000
      10 -> 15        -0.13877
      10 -> 16         0.53565
      10 -> 17         0.33131
      11 -> 19         0.15497
      12 -> 20        -0.11660

 Excited State  27:      Singlet-A"    14.0637 eV   88.16 nm  f=0.0001  <S**2>=0.000
       9 -> 15         0.52831
       9 -> 16        -0.39240
       9 -> 18        -0.18001

 Excited State  28:      Singlet-A'    14.7057 eV   84.31 nm  f=0.0396  <S**2>=0.000
       7 -> 14         0.13505
       8 -> 15        -0.16544
      10 -> 16        -0.30182
      10 -> 17         0.55391
      12 -> 20         0.13752

 Excited State  29:      Singlet-A"    14.7452 eV   84.08 nm  f=0.0394  <S**2>=0.000
       9 -> 16        -0.18550
       9 -> 17         0.51251
      12 -> 21         0.39602
      12 -> 22        -0.12765

 Excited State  30:      Singlet-A'    14.9780 eV   82.78 nm  f=0.1089  <S**2>=0.000
       8 -> 15         0.42105
       8 -> 16         0.45303
      10 -> 17         0.11674
      10 -> 18        -0.17214
      11 -> 21         0.13657

 Excited State  31:      Singlet-A"    15.0599 eV   82.33 nm  f=0.0002  <S**2>=0.000
       9 -> 16         0.10088
       9 -> 17        -0.37092
      12 -> 21         0.56950
      12 -> 22         0.11094

 Excited State  32:      Singlet-A'    15.2975 eV   81.05 nm  f=0.1470  <S**2>=0.000
       8 -> 15         0.48000
       8 -> 16        -0.36350
       8 -> 18        -0.11979
      10 -> 17         0.12881
      11 -> 21        -0.19290
      11 -> 22         0.11530

 Excited State  33:      Singlet-A"    15.5889 eV   79.53 nm  f=0.0137  <S**2>=0.000
       6 -> 13         0.52573
       9 -> 16         0.20265
       9 -> 18        -0.39331

 Excited State  34:      Singlet-A'    15.6077 eV   79.44 nm  f=0.0296  <S**2>=0.000
       7 -> 14         0.19834
       8 -> 16        -0.19576
       8 -> 17        -0.14288
      11 -> 21         0.58249

 Excited State  35:      Singlet-A"    15.7323 eV   78.81 nm  f=0.0160  <S**2>=0.000
       9 -> 17         0.17372
       9 -> 18        -0.11260
      12 -> 22         0.66554

 Excited State  36:      Singlet-A'    15.7564 eV   78.69 nm  f=0.0303  <S**2>=0.000
       7 -> 14         0.55356
       7 -> 16         0.11488
      10 -> 14        -0.11736
      10 -> 18         0.13107
      11 -> 21        -0.16432
      11 -> 22         0.27097

 Excited State  37:      Singlet-A'    15.9117 eV   77.92 nm  f=0.0553  <S**2>=0.000
       7 -> 14        -0.26167
      10 -> 18         0.33944
      11 -> 21         0.15305
      11 -> 22         0.48022

 Excited State  38:      Singlet-A"    16.0743 eV   77.13 nm  f=0.2199  <S**2>=0.000
       6 -> 13         0.42417
       9 -> 16        -0.16198
       9 -> 18         0.48825
       9 -> 19        -0.10811
      12 -> 22         0.12248

 Excited State  39:      Singlet-A'    16.1366 eV   76.83 nm  f=0.0737  <S**2>=0.000
       8 -> 16        -0.22823
       8 -> 17         0.54171
      10 -> 18        -0.28820
      11 -> 22         0.13289

 Excited State  40:      Singlet-A'    16.3893 eV   75.65 nm  f=0.2153  <S**2>=0.000
       7 -> 15        -0.19335
       7 -> 16        -0.16241
       8 -> 17         0.29205
      10 -> 18         0.43234
      10 -> 19         0.19149
      11 -> 22        -0.29123

 Excited State  41:      Singlet-A'    16.6509 eV   74.46 nm  f=0.0226  <S**2>=0.000
       7 -> 15         0.53976
       7 -> 16         0.14724
       9 -> 20         0.10621
      10 -> 19         0.35970

 Excited State  42:      Singlet-A"    16.8962 eV   73.38 nm  f=0.0232  <S**2>=0.000
      10 -> 20         0.67199
      11 -> 24         0.15480

 Excited State  43:      Singlet-A'    16.9655 eV   73.08 nm  f=0.1494  <S**2>=0.000
       7 -> 16         0.36950
       7 -> 17         0.15854
       8 -> 16         0.11678
       8 -> 17         0.17651
       8 -> 18        -0.35646
      10 -> 19        -0.25577
      11 -> 22        -0.15136
      12 -> 26        -0.11945

 Excited State  44:      Singlet-A'    17.1257 eV   72.40 nm  f=0.0666  <S**2>=0.000
       7 -> 15        -0.33182
       7 -> 16         0.26493
       9 -> 20        -0.13266
      10 -> 18        -0.13613
      10 -> 19         0.45582

 Excited State  45:      Singlet-A"    17.2061 eV   72.06 nm  f=0.0722  <S**2>=0.000
       9 -> 18         0.13729
       9 -> 19         0.66879

 Excited State  46:      Singlet-A'    17.3765 eV   71.35 nm  f=0.0517  <S**2>=0.000
       7 -> 17        -0.21827
       8 -> 18        -0.32864
       9 -> 20         0.27205
      11 -> 23         0.13787
      12 -> 24         0.43180

 Excited State  47:      Singlet-A'    17.5262 eV   70.74 nm  f=0.0352  <S**2>=0.000
       7 -> 15        -0.12850
       7 -> 16         0.24983
       8 -> 18         0.29640
       9 -> 20         0.51684
      11 -> 23         0.10577

 Excited State  48:      Singlet-A"    17.5483 eV   70.65 nm  f=0.0165  <S**2>=0.000
      11 -> 24         0.30833
      12 -> 23         0.59815

 Excited State  49:      Singlet-A"    17.6733 eV   70.15 nm  f=0.0590  <S**2>=0.000
      10 -> 20        -0.12958
      11 -> 24         0.60386
      12 -> 23        -0.30301

 Excited State  50:      Singlet-A'    17.7395 eV   69.89 nm  f=0.0287  <S**2>=0.000
       6 -> 14         0.16960
       6 -> 16         0.10779
       7 -> 16         0.12867
       7 -> 17         0.10218
       8 -> 18         0.30122
       8 -> 19         0.15880
       9 -> 20        -0.22420
      10 -> 19        -0.11463
      12 -> 24         0.45359

 Excited State  51:      Singlet-A'    17.8682 eV   69.39 nm  f=0.0742  <S**2>=0.000
       6 -> 14        -0.38053
       7 -> 17         0.48220
       9 -> 20         0.15366
      12 -> 24         0.14879

 Excited State  52:      Singlet-A'    18.1583 eV   68.28 nm  f=0.0529  <S**2>=0.000
       6 -> 14         0.24293
       7 -> 16        -0.17930
       7 -> 17         0.26097
      11 -> 23         0.51234
      11 -> 25        -0.11009
      12 -> 24        -0.13285

 Excited State  53:      Singlet-A'    18.3323 eV   67.63 nm  f=0.0571  <S**2>=0.000
       6 -> 14        -0.35222
       7 -> 17        -0.26471
       7 -> 19         0.12006
       8 -> 19         0.39948
      11 -> 23         0.23464
      12 -> 26         0.12241

 Excited State  54:      Singlet-A'    18.5682 eV   66.77 nm  f=0.0464  <S**2>=0.000
       6 -> 14         0.23262
       7 -> 16        -0.18238
       7 -> 18         0.15505
       8 -> 19         0.46293
       9 -> 20         0.13092
      11 -> 23        -0.25543
      12 -> 26        -0.17123

 Excited State  55:      Singlet-A"    18.6286 eV   66.56 nm  f=0.0153  <S**2>=0.000
       8 -> 20         0.37451
       9 -> 21         0.18194
      11 -> 26        -0.11593
      12 -> 25         0.46643
      12 -> 27        -0.25315

 Excited State  56:      Singlet-A"    18.6629 eV   66.43 nm  f=0.0050  <S**2>=0.000
       8 -> 20         0.55257
      12 -> 25        -0.36156
      12 -> 27         0.14071

 Excited State  57:      Singlet-A'    19.0116 eV   65.22 nm  f=0.0040  <S**2>=0.000
       6 -> 15         0.44750
       6 -> 16         0.28791
      10 -> 21        -0.30968
      11 -> 28        -0.13425
      12 -> 26         0.19120

 Excited State  58:      Singlet-A'    19.0540 eV   65.07 nm  f=0.0041  <S**2>=0.000
       6 -> 14        -0.11521
       6 -> 15         0.40686
       7 -> 18         0.31483
      10 -> 21         0.27739
      11 -> 23         0.13592
      11 -> 27         0.16475
      12 -> 26        -0.24264

 Excited State  59:      Singlet-A"    19.1336 eV   64.80 nm  f=0.0492  <S**2>=0.000
       9 -> 21         0.46257
       9 -> 22         0.13189
      11 -> 26        -0.18299
      12 -> 25        -0.31152
      12 -> 27        -0.29045
      12 -> 29        -0.10536

 Excited State  60:      Singlet-A'    19.1571 eV   64.72 nm  f=0.0226  <S**2>=0.000
       6 -> 15         0.14194
       6 -> 17        -0.14432
       8 -> 19         0.14559
      10 -> 21         0.42975
      11 -> 25         0.15281
      11 -> 27        -0.24383
      12 -> 26         0.34417

 Excited State  61:      Singlet-A'    19.2658 eV   64.35 nm  f=0.0105  <S**2>=0.000
       7 -> 18         0.33930
      10 -> 21        -0.19012
      11 -> 25         0.51241
      11 -> 27        -0.19186

 Excited State  62:      Singlet-A"    19.3323 eV   64.13 nm  f=0.0000  <S**2>=0.000
       7 -> 20         0.10856
       9 -> 22         0.11041
      11 -> 26         0.59145
      12 -> 25        -0.10227
      12 -> 27        -0.29412

 Excited State  63:      Singlet-A"    19.3772 eV   63.98 nm  f=0.0027  <S**2>=0.000
       9 -> 21         0.44877
       9 -> 22        -0.15978
      11 -> 26         0.26346
      12 -> 27         0.39290
      12 -> 28        -0.11929

 Excited State  64:      Singlet-A'    19.5410 eV   63.45 nm  f=0.0038  <S**2>=0.000
       6 -> 16         0.11594
       7 -> 18        -0.28375
      10 -> 22        -0.12316
      11 -> 25         0.37311
      11 -> 27         0.40554
      11 -> 28        -0.11291

 Excited State  65:      Singlet-A"    19.5440 eV   63.44 nm  f=0.0003  <S**2>=0.000
       9 -> 21         0.13454
       9 -> 22         0.18745
      12 -> 27         0.15730
      12 -> 28         0.52927
      12 -> 29         0.31474
      12 -> 30        -0.15063

 Excited State  66:      Singlet-A'    19.7450 eV   62.79 nm  f=0.0403  <S**2>=0.000
       6 -> 15        -0.21999
       6 -> 16         0.47780
       6 -> 17        -0.12183
       7 -> 18         0.28960
      10 -> 21         0.12258
      11 -> 27         0.15189
      12 -> 26         0.14277

 Excited State  67:      Singlet-A"    19.8393 eV   62.49 nm  f=0.0104  <S**2>=0.000
       9 -> 22         0.47464
      12 -> 27         0.21330
      12 -> 29        -0.44947

 Excited State  68:      Singlet-A"    19.9837 eV   62.04 nm  f=0.0001  <S**2>=0.000
       9 -> 22        -0.38977
      12 -> 28         0.40865
      12 -> 29        -0.38780

 Excited State  69:      Singlet-A'    20.0516 eV   61.83 nm  f=0.0444  <S**2>=0.000
       6 -> 16         0.22767
       7 -> 18        -0.11928
       7 -> 19        -0.33612
      10 -> 21         0.10024
      11 -> 27        -0.23250
      11 -> 29         0.37271
      12 -> 26        -0.23326

 Excited State  70:      Singlet-A'    20.1183 eV   61.63 nm  f=0.0336  <S**2>=0.000
       6 -> 17         0.44546
       7 -> 19         0.36239
       8 -> 21         0.11445
      10 -> 21         0.18699
      11 -> 27        -0.11703
      11 -> 28        -0.21358

 Excited State  71:      Singlet-A'    20.2802 eV   61.14 nm  f=0.0044  <S**2>=0.000
       6 -> 17        -0.37421
       7 -> 19         0.41628
      10 -> 22        -0.18657
      11 -> 27        -0.16821
      11 -> 28         0.15887
      11 -> 29         0.17189
      12 -> 26        -0.10582

 Excited State  72:      Singlet-A"    20.3954 eV   60.79 nm  f=0.0006  <S**2>=0.000
       7 -> 20         0.66799
       8 -> 20        -0.10554
      11 -> 26        -0.11324

 Excited State  73:      Singlet-A'    20.4274 eV   60.70 nm  f=0.0323  <S**2>=0.000
       6 -> 17        -0.12718
       7 -> 19         0.13233
       8 -> 21        -0.11150
      10 -> 22         0.59968
      11 -> 29         0.18125

 Excited State  74:      Singlet-A'    20.5281 eV   60.40 nm  f=0.0529  <S**2>=0.000
       6 -> 17         0.23542
       8 -> 21        -0.26071
       9 -> 24        -0.15261
      11 -> 27         0.11580
      11 -> 28         0.40731
      11 -> 29         0.28955
      12 -> 26         0.17105

 Excited State  75:      Singlet-A"    20.7474 eV   59.76 nm  f=0.0028  <S**2>=0.000
       9 -> 25        -0.10073
      12 -> 29         0.11856
      12 -> 30         0.65948

 Excited State  76:      Singlet-A'    20.8692 eV   59.41 nm  f=0.1259  <S**2>=0.000
       8 -> 21         0.54269
       9 -> 24        -0.15213
      10 -> 22         0.16401
      11 -> 28         0.29130

 Excited State  77:      Singlet-A'    21.1178 eV   58.71 nm  f=0.1229  <S**2>=0.000
       6 -> 16        -0.16360
       6 -> 18         0.25696
       8 -> 21         0.21689
       8 -> 22        -0.22647
      11 -> 28        -0.22884
      11 -> 29         0.34913
      11 -> 30        -0.15925
      12 -> 26         0.14441

 Excited State  78:      Singlet-A'    21.2981 eV   58.21 nm  f=0.0486  <S**2>=0.000
       6 -> 18         0.31422
       8 -> 22         0.26086
       9 -> 24        -0.18127
      10 -> 22         0.11569
      11 -> 30         0.46999

 Excited State  79:      Singlet-A'    21.5628 eV   57.50 nm  f=0.0226  <S**2>=0.000
       6 -> 18        -0.37370
       8 -> 21         0.14485
       8 -> 22        -0.29667
       9 -> 24         0.12367
       9 -> 26        -0.13850
      11 -> 27         0.10389
      11 -> 29         0.11675
      11 -> 30         0.39357

 Excited State  80:      Singlet-A'    21.6520 eV   57.26 nm  f=0.1884  <S**2>=0.000
       6 -> 18         0.36425
       7 -> 21         0.15098
       8 -> 22        -0.35368
       9 -> 24         0.25855
      11 -> 28         0.16235
      11 -> 30         0.12380
      11 -> 31        -0.12400
      12 -> 26        -0.10640

 Excited State  81:      Singlet-A"    21.6976 eV   57.14 nm  f=0.0125  <S**2>=0.000
       5 -> 13         0.12097
       9 -> 23         0.60581
       9 -> 25        -0.12711
      12 -> 31         0.26312

 Excited State  82:      Singlet-A"    21.9010 eV   56.61 nm  f=0.0067  <S**2>=0.000
       5 -> 13         0.33186
       9 -> 23        -0.27259
       9 -> 25         0.13411
      10 -> 24        -0.12393
      12 -> 31         0.49892

 Excited State  83:      Singlet-A'    22.0359 eV   56.26 nm  f=0.0633  <S**2>=0.000
       7 -> 21         0.11009
       8 -> 22         0.28407
       8 -> 23        -0.15073
       9 -> 24         0.45167
      10 -> 23         0.21465
      10 -> 25        -0.11766
      11 -> 27         0.13458
      11 -> 31        -0.16809

 Excited State  84:      Singlet-A"    22.0472 eV   56.24 nm  f=0.0064  <S**2>=0.000
       5 -> 13        -0.14385
       6 -> 20        -0.17752
      10 -> 24         0.60175
      12 -> 31         0.25929

 Excited State  85:      Singlet-A"    22.2232 eV   55.79 nm  f=0.0003  <S**2>=0.000
       5 -> 13         0.52382
       8 -> 24        -0.11519
      10 -> 24         0.26527
      11 -> 32         0.11445
      12 -> 31        -0.30098

 Excited State  86:      Singlet-A'    22.2871 eV   55.63 nm  f=0.0923  <S**2>=0.000
       6 -> 19         0.31342
      10 -> 23         0.19868
      11 -> 31         0.56934

 Excited State  87:      Singlet-A'    22.3975 eV   55.36 nm  f=0.0102  <S**2>=0.000
       6 -> 19         0.50385
       7 -> 21        -0.33373
       9 -> 26        -0.16885
      10 -> 23        -0.13463
      11 -> 31        -0.19373
      12 -> 32        -0.13012

 Excited State  88:      Singlet-A'    22.5603 eV   54.96 nm  f=0.0623  <S**2>=0.000
       7 -> 21        -0.22709
       8 -> 23        -0.12274
       9 -> 24        -0.16647
       9 -> 26         0.14814
      10 -> 23         0.50408
      10 -> 25         0.17162
      11 -> 31        -0.17614
      12 -> 32         0.14759

 Excited State  89:      Singlet-A"    22.5707 eV   54.93 nm  f=0.0075  <S**2>=0.000
       5 -> 13        -0.11768
       6 -> 20         0.60693
       8 -> 24        -0.21302
      10 -> 24         0.14159
      10 -> 26        -0.12476

 Excited State  90:      Singlet-A'    22.7630 eV   54.47 nm  f=0.0385  <S**2>=0.000
       6 -> 19         0.24665
       7 -> 21         0.48135
       8 -> 25         0.11630
       9 -> 24        -0.16686
       9 -> 26        -0.11484
      10 -> 25         0.21775
      11 -> 28        -0.10112
      11 -> 31        -0.13782
      12 -> 32         0.14062

 Excited State  91:      Singlet-A"    22.9752 eV   53.96 nm  f=0.0458  <S**2>=0.000
       6 -> 20         0.14158
       8 -> 24         0.42555
       8 -> 26         0.11137
       9 -> 25         0.30483
      10 -> 26        -0.31921
      11 -> 32        -0.20288

 The electronic state is 1-A'.
 Alpha  occ. eigenvalues --  -19.29575 -14.49590 -10.31699  -1.20099  -0.96774
 Alpha  occ. eigenvalues --   -0.70929  -0.62854  -0.56270  -0.51192  -0.50995
 Alpha  occ. eigenvalues --   -0.37187  -0.35701
 Alpha virt. eigenvalues --    0.06042   0.12059   0.15807   0.18121   0.20918
 Alpha virt. eigenvalues --    0.26471   0.29300   0.31371   0.38890   0.41602
 Alpha virt. eigenvalues --    0.49092   0.49209   0.51528   0.54714   0.55276

 Mulliken charges:
               1
     1  O   -0.349502
     2  N   -0.094859
     3  C   -0.158631
     4  H    0.338260
     5  H    0.142274
     6  H    0.122457
 Sum of Mulliken charges =   0.00000

 Dipole moment (field-independent basis, Debye):
    X=              0.1874    Y=             -0.1188    Z=              0.0000  Tot=              0.2219
 Quadrupole moment (field-independent basis, Debye-Ang):
   XX=            -11.6086   YY=            -19.2984   ZZ=            -19.0242
   XY=             -1.5024   XZ=              0.0000   YZ=              0.0000

 Normal termination of Gaussian 16 at Sat Aug 14 06:19:19 2021.
