 Gaussian 16, Revision C.01,
 Gaussian 16:  EM64L-G16RevC.01  3-Jul-2019

 ----------------------------------------------------------------------
 #P TD(Nstates=10000) wB97XD/def2TZVP SCF(maxcycles=100) Int(Grid=ultra
 fine)
 ----------------------------------------------------------------------

 ---------------------
 xGDB7_00001_tier4.com
 ---------------------
 Symbolic Z-matrix:
 Charge =  0 Multiplicity = 1

                         Standard orientation:
 ---------------------------------------------------------------------
 Center     Atomic      Atomic             Coordinates (Angstroms)
 Number     Number       Type             X           Y           Z
 ---------------------------------------------------------------------
      1          9           0        0.000000    1.098813   -0.289120
      2          6           0       -0.000000   -0.000000    0.499944
      3          9           0       -0.000000   -1.098813   -0.289120
      4          1           0       -0.911346    0.000000    1.102246
      5          1           0        0.911346   -0.000000    1.102246
 ---------------------------------------------------------------------

 SCF Done:  E(RwB97XD) =  -239.025472990     A.U. after   12 cycles

 Excitation energies and oscillator strengths:

 Excited State   1:      Singlet-B1    10.3336 eV  119.98 nm  f=0.1060  <S**2>=0.000
      13 -> 14         0.68949
      13 -> 17         0.13403
 This state for optimization and/or second-order correction.
 Total Energy, E(TD-HF/TD-DFT) =  -238.645720673
 Copying the excited state density for this state as the 1-particle RhoCI density.

 Excited State   2:      Singlet-A2    10.5477 eV  117.55 nm  f=0.0000  <S**2>=0.000
      13 -> 15         0.69974

 Excited State   3:      Singlet-B1    11.4106 eV  108.66 nm  f=0.0340  <S**2>=0.000
      13 -> 14        -0.13675
      13 -> 17         0.68299

 Excited State   4:      Singlet-A1    11.9153 eV  104.05 nm  f=0.0970  <S**2>=0.000
      12 -> 15        -0.20028
      13 -> 16         0.67359

 Excited State   5:      Singlet-B2    12.2512 eV  101.20 nm  f=0.0065  <S**2>=0.000
      11 -> 15        -0.27507
      12 -> 14         0.60607
      12 -> 17         0.22816

 Excited State   6:      Singlet-A1    12.3793 eV  100.15 nm  f=0.0316  <S**2>=0.000
      11 -> 14        -0.38134
      11 -> 17        -0.12999
      12 -> 15         0.55033
      13 -> 16         0.15780

 Excited State   7:      Singlet-A1    12.7137 eV   97.52 nm  f=0.0371  <S**2>=0.000
      11 -> 14         0.56504
      11 -> 17         0.12024
      12 -> 15         0.37377
      13 -> 16         0.12285

 Excited State   8:      Singlet-A2    12.8039 eV   96.83 nm  f=0.0000  <S**2>=0.000
      10 -> 14         0.65154
      10 -> 17         0.26188

 Excited State   9:      Singlet-B2    12.8718 eV   96.32 nm  f=0.0336  <S**2>=0.000
      11 -> 15         0.48888
      12 -> 14         0.35622
      12 -> 17        -0.34140

 Excited State  10:      Singlet-B1    13.0127 eV   95.28 nm  f=0.0255  <S**2>=0.000
      10 -> 15         0.69394

 Excited State  11:      Singlet-A1    13.4011 eV   92.52 nm  f=0.1281  <S**2>=0.000
      11 -> 14        -0.16957
      11 -> 17         0.67453

 Excited State  12:      Singlet-A2    13.6337 eV   90.94 nm  f=0.0000  <S**2>=0.000
      12 -> 16         0.70358

 Excited State  13:      Singlet-B1    13.7175 eV   90.38 nm  f=0.0514  <S**2>=0.000
      11 -> 16         0.70081

 Excited State  14:      Singlet-A2    13.7740 eV   90.01 nm  f=0.0000  <S**2>=0.000
      10 -> 14        -0.26034
      10 -> 17         0.64082

 Excited State  15:      Singlet-B2    13.7985 eV   89.85 nm  f=0.0929  <S**2>=0.000
      10 -> 16        -0.28490
      11 -> 15         0.36132
      12 -> 17         0.52171

 Excited State  16:      Singlet-B2    14.3948 eV   86.13 nm  f=0.1131  <S**2>=0.000
      10 -> 16         0.63865
      11 -> 15         0.18566
      12 -> 17         0.19945

 Excited State  17:      Singlet-B1    15.3481 eV   80.78 nm  f=0.0719  <S**2>=0.000
      13 -> 19         0.54587
      13 -> 20        -0.42182

 Excited State  18:      Singlet-A1    15.5910 eV   79.52 nm  f=0.0005  <S**2>=0.000
       9 -> 15        -0.22360
      13 -> 18         0.65643

 Excited State  19:      Singlet-A2    15.8647 eV   78.15 nm  f=0.0000  <S**2>=0.000
      10 -> 19         0.13117
      13 -> 21         0.68191

 Excited State  20:      Singlet-B2    16.0015 eV   77.48 nm  f=0.0016  <S**2>=0.000
       9 -> 14         0.65145
       9 -> 17         0.23987

 Excited State  21:      Singlet-B1    16.0231 eV   77.38 nm  f=0.0616  <S**2>=0.000
       7 -> 14         0.55386
      13 -> 19         0.28777
      13 -> 20         0.31774

 Excited State  22:      Singlet-A1    16.1793 eV   76.63 nm  f=0.0693  <S**2>=0.000
       8 -> 14         0.61262
       8 -> 17         0.16301
       9 -> 15        -0.24469
      13 -> 18        -0.13635

 Excited State  23:      Singlet-A2    16.1951 eV   76.56 nm  f=0.0000  <S**2>=0.000
       7 -> 15         0.69388

 Excited State  24:      Singlet-B1    16.2205 eV   76.44 nm  f=0.2750  <S**2>=0.000
       7 -> 14        -0.41497
      13 -> 19         0.31884
      13 -> 20         0.44883

 Excited State  25:      Singlet-B2    16.2845 eV   76.14 nm  f=0.2353  <S**2>=0.000
       8 -> 15         0.68248

 Excited State  26:      Singlet-A1    16.6663 eV   74.39 nm  f=0.0320  <S**2>=0.000
       7 -> 16        -0.16481
       8 -> 14         0.29352
       8 -> 17        -0.24030
       9 -> 15         0.52444
      12 -> 21        -0.12536
      13 -> 18         0.13556

 Excited State  27:      Singlet-B2    16.7730 eV   73.92 nm  f=0.0193  <S**2>=0.000
       9 -> 17         0.17650
      11 -> 21         0.19819
      12 -> 19         0.54495
      12 -> 20        -0.34043

 Excited State  28:      Singlet-A1    17.0507 eV   72.72 nm  f=0.2341  <S**2>=0.000
       8 -> 17         0.30823
      11 -> 19         0.47075
      11 -> 20        -0.30689
      12 -> 21         0.23111

 Excited State  29:      Singlet-B1    17.1293 eV   72.38 nm  f=0.0103  <S**2>=0.000
       7 -> 17        -0.41918
       8 -> 16         0.52259
      11 -> 18        -0.17391

 Excited State  30:      Singlet-B2    17.1394 eV   72.34 nm  f=0.0968  <S**2>=0.000
       9 -> 14        -0.24469
       9 -> 17         0.58271
      10 -> 18         0.24912
      12 -> 19        -0.15714

 Excited State  31:      Singlet-A2    17.1628 eV   72.24 nm  f=0.0000  <S**2>=0.000
      12 -> 18         0.70171

 Excited State  32:      Singlet-A1    17.2565 eV   71.85 nm  f=0.1217  <S**2>=0.000
       7 -> 16        -0.28839
       8 -> 14        -0.11324
       8 -> 17         0.49697
       9 -> 15         0.15422
      11 -> 19        -0.26237
      12 -> 21        -0.18476
      13 -> 18         0.10673

 Excited State  33:      Singlet-A2    17.3495 eV   71.46 nm  f=0.0000  <S**2>=0.000
       9 -> 16         0.70025

 Excited State  34:      Singlet-B1    17.4025 eV   71.25 nm  f=0.0966  <S**2>=0.000
       7 -> 17         0.29616
       8 -> 16         0.41403
      11 -> 18         0.46866

 Excited State  35:      Singlet-A2    17.4862 eV   70.90 nm  f=0.0000  <S**2>=0.000
      10 -> 19         0.56040
      10 -> 20        -0.38080
      13 -> 21        -0.13799

 Excited State  36:      Singlet-B1    17.5341 eV   70.71 nm  f=0.0305  <S**2>=0.000
       7 -> 17        -0.44636
       8 -> 16        -0.20817
      11 -> 18         0.49079

 Excited State  37:      Singlet-A1    17.7256 eV   69.95 nm  f=0.0019  <S**2>=0.000
       7 -> 16         0.54469
       8 -> 17         0.14752
       9 -> 15         0.18276
      11 -> 19        -0.13628
      11 -> 20        -0.25213
      12 -> 21        -0.20476

 Excited State  38:      Singlet-B2    17.8356 eV   69.52 nm  f=0.0061  <S**2>=0.000
       9 -> 17        -0.16213
      10 -> 18         0.50756
      11 -> 21         0.38487
      12 -> 20         0.21847

 Excited State  39:      Singlet-A1    18.1336 eV   68.37 nm  f=0.0154  <S**2>=0.000
       7 -> 16         0.13079
       9 -> 15         0.16228
      11 -> 19        -0.26182
      11 -> 20         0.16825
      12 -> 21         0.56527

 Excited State  40:      Singlet-B2    18.1681 eV   68.24 nm  f=0.0829  <S**2>=0.000
       8 -> 15        -0.11108
      10 -> 18        -0.10357
      11 -> 21        -0.18323
      12 -> 19         0.37117
      12 -> 20         0.53177

 Excited State  41:      Singlet-A1    18.3424 eV   67.59 nm  f=0.0001  <S**2>=0.000
       7 -> 16         0.21367
       8 -> 17         0.16677
      11 -> 19         0.31753
      11 -> 20         0.54214
      12 -> 21        -0.10757

 Excited State  42:      Singlet-B1    18.4673 eV   67.14 nm  f=0.0228  <S**2>=0.000
       7 -> 17        -0.10727
      10 -> 21         0.67651

 Excited State  43:      Singlet-B2    18.5051 eV   67.00 nm  f=0.1764  <S**2>=0.000
       9 -> 17         0.13746
      10 -> 18        -0.37463
      11 -> 21         0.50622
      12 -> 19        -0.13473
      12 -> 20         0.16851

 Excited State  44:      Singlet-A2    18.7716 eV   66.05 nm  f=0.0000  <S**2>=0.000
      10 -> 19         0.38569
      10 -> 20         0.57808

 Excited State  45:      Singlet-B1    20.7010 eV   59.89 nm  f=0.0725  <S**2>=0.000
       7 -> 19        -0.25442
       8 -> 18        -0.19984
      13 -> 23         0.60732

 Excited State  46:      Singlet-A1    20.7151 eV   59.85 nm  f=0.1095  <S**2>=0.000
       6 -> 14        -0.13392
       6 -> 17         0.12634
       7 -> 18        -0.11201
      13 -> 22         0.64439

 Excited State  47:      Singlet-A1    20.8626 eV   59.43 nm  f=0.0096  <S**2>=0.000
       6 -> 14         0.65473
       6 -> 17         0.13163
       8 -> 19        -0.10249
       8 -> 20         0.10746
      13 -> 22         0.12140

 Excited State  48:      Singlet-B2    20.9351 eV   59.22 nm  f=0.0446  <S**2>=0.000
       6 -> 15         0.59442
       8 -> 21         0.17742
       9 -> 19         0.31337

 Excited State  49:      Singlet-B1    21.0061 eV   59.02 nm  f=0.0004  <S**2>=0.000
       7 -> 19         0.48189
       7 -> 20        -0.41052
       8 -> 18        -0.19505
      13 -> 23         0.16939

 Excited State  50:      Singlet-A2    21.0176 eV   58.99 nm  f=0.0000  <S**2>=0.000
       9 -> 18         0.70297

 Excited State  51:      Singlet-A1    21.0732 eV   58.84 nm  f=0.0059  <S**2>=0.000
       6 -> 17         0.16755
       7 -> 18         0.31470
       8 -> 19         0.49780
       8 -> 20        -0.24518
       9 -> 21         0.20287

 Excited State  52:      Singlet-A1    21.1579 eV   58.60 nm  f=0.1152  <S**2>=0.000
       6 -> 17        -0.15898
       7 -> 18         0.60823
       8 -> 19        -0.23668
       9 -> 21        -0.10838
      13 -> 22         0.12677

 Excited State  53:      Singlet-B1    21.1735 eV   58.56 nm  f=0.0128  <S**2>=0.000
       7 -> 20        -0.15237
       8 -> 18         0.63479
      11 -> 22        -0.11656
      13 -> 23         0.21560

 Excited State  54:      Singlet-B2    21.3677 eV   58.02 nm  f=0.1221  <S**2>=0.000
       6 -> 15        -0.26044
       8 -> 21         0.19127
       9 -> 19         0.46233
       9 -> 20        -0.36194
      10 -> 22        -0.12090

 Excited State  55:      Singlet-A2    21.5447 eV   57.55 nm  f=0.0000  <S**2>=0.000
       7 -> 21         0.67956
      13 -> 24         0.11735

 Excited State  56:      Singlet-B2    21.7045 eV   57.12 nm  f=0.0006  <S**2>=0.000
       8 -> 21         0.57425
       9 -> 19        -0.30738
       9 -> 20        -0.16407
      12 -> 23         0.11752
      13 -> 27        -0.10712

 Excited State  57:      Singlet-A1    21.7733 eV   56.94 nm  f=0.0446  <S**2>=0.000
       6 -> 17        -0.23015
       8 -> 19         0.39034
       8 -> 20         0.49295
       9 -> 21        -0.17474

 Excited State  58:      Singlet-B1    21.8375 eV   56.78 nm  f=0.0120  <S**2>=0.000
       6 -> 16         0.12734
       7 -> 19         0.34622
       7 -> 20         0.52652
      11 -> 22        -0.25283
      13 -> 23         0.11407

 Excited State  59:      Singlet-A1    21.9326 eV   56.53 nm  f=0.1131  <S**2>=0.000
       6 -> 17         0.55875
       8 -> 20         0.14475
       9 -> 21        -0.32838
      13 -> 22        -0.15256

 Excited State  60:      Singlet-A2    21.9872 eV   56.39 nm  f=0.0000  <S**2>=0.000
      12 -> 22         0.70255

 Excited State  61:      Singlet-B2    21.9913 eV   56.38 nm  f=0.0903  <S**2>=0.000
       6 -> 15        -0.25908
       8 -> 21         0.21423
       9 -> 19         0.23603
       9 -> 20         0.53277
      12 -> 23         0.12288

 Excited State  62:      Singlet-B1    22.0066 eV   56.34 nm  f=0.0104  <S**2>=0.000
       6 -> 16         0.67541
       7 -> 19        -0.15379

 Excited State  63:      Singlet-A2    22.2469 eV   55.73 nm  f=0.0000  <S**2>=0.000
       7 -> 21        -0.10441
      10 -> 23        -0.20881
      10 -> 25         0.15749
      13 -> 24         0.64012

 Excited State  64:      Singlet-B2    22.3244 eV   55.54 nm  f=0.0064  <S**2>=0.000
       8 -> 21        -0.13996
      12 -> 23         0.67762

 Excited State  65:      Singlet-B1    22.4468 eV   55.23 nm  f=0.0923  <S**2>=0.000
       7 -> 19         0.21248
       7 -> 20         0.12479
      11 -> 22         0.61262
      13 -> 23         0.14457
      13 -> 25        -0.12267

 Excited State  66:      Singlet-A1    22.5823 eV   54.90 nm  f=0.0525  <S**2>=0.000
       8 -> 20         0.12653
      11 -> 23         0.66237
      12 -> 24        -0.14380

 Excited State  67:      Singlet-B2    22.7080 eV   54.60 nm  f=0.1028  <S**2>=0.000
      10 -> 22         0.67614
      13 -> 27         0.11266

 Excited State  68:      Singlet-A2    22.9749 eV   53.97 nm  f=0.0000  <S**2>=0.000
      10 -> 23         0.67035
      13 -> 24         0.19517

 Excited State  69:      Singlet-B1    23.1525 eV   53.55 nm  f=0.0384  <S**2>=0.000
      10 -> 24         0.33205
      11 -> 22         0.12975
      13 -> 25         0.59064

 Excited State  70:      Singlet-A1    23.3219 eV   53.16 nm  f=0.0142  <S**2>=0.000
       6 -> 14        -0.12196
       6 -> 17         0.15957
       7 -> 16        -0.10382
       7 -> 22        -0.16963
       8 -> 20         0.26276
       9 -> 21         0.40999
      11 -> 23        -0.18413
      11 -> 26         0.11974
      12 -> 24        -0.30359

 Excited State  71:      Singlet-B1    23.4914 eV   52.78 nm  f=0.0091  <S**2>=0.000
      10 -> 24        -0.13076
      13 -> 26         0.67680

 Excited State  72:      Singlet-A1    23.6181 eV   52.50 nm  f=0.1193  <S**2>=0.000
       8 -> 20         0.13374
       9 -> 21         0.23778
      11 -> 25         0.23923
      12 -> 24         0.55509

 Excited State  73:      Singlet-B2    23.7327 eV   52.24 nm  f=0.0135  <S**2>=0.000
      11 -> 24         0.57300
      12 -> 25         0.36950

 Excited State  74:      Singlet-B2    24.1640 eV   51.31 nm  f=0.0918  <S**2>=0.000
      12 -> 25        -0.23347
      12 -> 26        -0.29068
      13 -> 27         0.57685

 Excited State  75:      Singlet-B1    24.8650 eV   49.86 nm  f=0.0103  <S**2>=0.000
      10 -> 24         0.58670
      13 -> 25        -0.35053
      13 -> 26         0.13730

 Excited State  76:      Singlet-A1    25.1185 eV   49.36 nm  f=0.0072  <S**2>=0.000
       6 -> 19         0.12048
       9 -> 24         0.15071
      11 -> 25         0.53592
      11 -> 26         0.32079
      12 -> 24        -0.15826

 Excited State  77:      Singlet-B2    25.1492 eV   49.30 nm  f=0.0202  <S**2>=0.000
       8 -> 24        -0.15375
      11 -> 24         0.30165
      12 -> 25        -0.40835
      12 -> 26         0.43671

 Excited State  78:      Singlet-A2    25.1824 eV   49.23 nm  f=0.0000  <S**2>=0.000
      10 -> 25         0.40335
      10 -> 26         0.53735
      13 -> 28         0.17886

 Excited State  79:      Singlet-B1    25.3369 eV   48.93 nm  f=0.0110  <S**2>=0.000
       8 -> 22        -0.11692
      12 -> 27         0.67841

 Excited State  80:      Singlet-A1    25.5216 eV   48.58 nm  f=0.0021  <S**2>=0.000
       6 -> 19        -0.17812
       9 -> 24        -0.10035
      10 -> 27        -0.42714
      11 -> 25        -0.22488
      11 -> 26         0.42815
      12 -> 24         0.11585

 Excited State  81:      Singlet-A2    25.6197 eV   48.39 nm  f=0.0000  <S**2>=0.000
       7 -> 24         0.12727
       9 -> 22        -0.29552
      10 -> 25         0.43334
      10 -> 26        -0.29752
      11 -> 27        -0.30093
      13 -> 24        -0.14749

 Excited State  82:      Singlet-A2    25.6449 eV   48.35 nm  f=0.0000  <S**2>=0.000
       9 -> 22        -0.32086
      10 -> 25         0.10106
      10 -> 26        -0.11583
      11 -> 27         0.59661

 Excited State  83:      Singlet-B1    25.7308 eV   48.19 nm  f=0.0132  <S**2>=0.000
       6 -> 18         0.62841
       8 -> 22         0.26919
      12 -> 27         0.13028

 Excited State  84:      Singlet-A1    25.7535 eV   48.14 nm  f=0.0032  <S**2>=0.000
       6 -> 19         0.43511
       6 -> 20        -0.29945
       7 -> 22        -0.38261
       8 -> 23         0.18841
      11 -> 25        -0.10373

 Excited State  85:      Singlet-A2    25.7656 eV   48.12 nm  f=0.0000  <S**2>=0.000
       9 -> 22         0.54971
      10 -> 25         0.28138
      10 -> 26        -0.24890
      11 -> 27         0.18500

 Excited State  86:      Singlet-B1    25.8055 eV   48.05 nm  f=0.0068  <S**2>=0.000
       6 -> 18        -0.27681
       7 -> 23        -0.33805
       8 -> 22         0.54203

 Excited State  87:      Singlet-B2    26.0798 eV   47.54 nm  f=0.0137  <S**2>=0.000
       6 -> 21        -0.19260
       9 -> 23         0.66870

 Excited State  88:      Singlet-A1    26.1794 eV   47.36 nm  f=0.0089  <S**2>=0.000
       6 -> 19         0.46082
       6 -> 20         0.40295
       7 -> 22         0.18573
       8 -> 23        -0.20536
      11 -> 25        -0.13948
      11 -> 26         0.12553

 Excited State  89:      Singlet-A1    26.2583 eV   47.22 nm  f=0.0320  <S**2>=0.000
       6 -> 20         0.32283
       8 -> 23         0.61291

 Excited State  90:      Singlet-B2    26.4923 eV   46.80 nm  f=0.0033  <S**2>=0.000
       6 -> 21         0.57007
       9 -> 23         0.18050
      11 -> 24        -0.13139
      12 -> 25         0.20500
      12 -> 26         0.11957
      13 -> 27         0.16372
      13 -> 29        -0.11001

 Excited State  91:      Singlet-B1    26.5415 eV   46.71 nm  f=0.2507  <S**2>=0.000
       7 -> 23         0.60522
       8 -> 22         0.32229

 Excited State  92:      Singlet-B2    26.9143 eV   46.07 nm  f=0.2545  <S**2>=0.000
       6 -> 21        -0.30978
       7 -> 27        -0.13916
       8 -> 24        -0.13889
       9 -> 25         0.15747
       9 -> 26        -0.13448
      11 -> 24        -0.18440
      12 -> 25         0.26232
      12 -> 26         0.31817
      13 -> 27         0.22528

 Excited State  93:      Singlet-A1    26.9610 eV   45.99 nm  f=0.0833  <S**2>=0.000
       6 -> 20        -0.18289
       7 -> 22         0.24543
       8 -> 25        -0.15366
       9 -> 24         0.31066
      10 -> 27         0.32123
      11 -> 25        -0.21903
      11 -> 26         0.29267
      12 -> 24         0.10264

 Excited State  94:      Singlet-A1    27.1856 eV   45.61 nm  f=0.0035  <S**2>=0.000
       6 -> 19         0.13990
       6 -> 20        -0.27441
       7 -> 22         0.40293
       8 -> 20         0.12922
       8 -> 26         0.21343
       9 -> 21         0.14040
      10 -> 27        -0.23209
      11 -> 26        -0.14570
      12 -> 28         0.10089
      13 -> 30         0.11446

 Excited State  95:      Singlet-B2    27.9006 eV   44.44 nm  f=0.4905  <S**2>=0.000
       8 -> 24        -0.27090
       9 -> 25         0.11093
      13 -> 29         0.61681

 Excited State  96:      Singlet-A1    28.1428 eV   44.06 nm  f=0.0049  <S**2>=0.000
       7 -> 22        -0.13898
       8 -> 26         0.24444
       9 -> 24         0.50179
      10 -> 27        -0.15739
      11 -> 25        -0.10085
      11 -> 26        -0.12132
      12 -> 28         0.26668
      13 -> 30        -0.11951

 Excited State  97:      Singlet-A2    28.2044 eV   43.96 nm  f=0.0000  <S**2>=0.000
       7 -> 24        -0.27357
      10 -> 26        -0.19546
      13 -> 28         0.61680

 Excited State  98:      Singlet-B2    28.2639 eV   43.87 nm  f=0.1278  <S**2>=0.000
       6 -> 21         0.10177
       8 -> 24         0.39990
       9 -> 25        -0.27141
       9 -> 26        -0.24501
      10 -> 30         0.10553
      11 -> 28        -0.20723
      12 -> 26         0.17229
      13 -> 29         0.27621

 Excited State  99:      Singlet-A2    28.4486 eV   43.58 nm  f=0.0000  <S**2>=0.000
       7 -> 24         0.62587
      10 -> 25        -0.16703
      13 -> 28         0.27664

 Excited State 100:      Singlet-B2    28.5318 eV   43.45 nm  f=0.0513  <S**2>=0.000
       7 -> 27        -0.11096
       8 -> 24         0.39777
       9 -> 25         0.27433
       9 -> 26         0.44046
      11 -> 28         0.15625

 Excited State 101:      Singlet-B1    28.8346 eV   43.00 nm  f=0.0016  <S**2>=0.000
       7 -> 25         0.25410
       7 -> 26         0.53996
      10 -> 28         0.33798
      12 -> 29        -0.10216

 Excited State 102:      Singlet-A1    28.9796 eV   42.78 nm  f=0.0222  <S**2>=0.000
       6 -> 23         0.10466
       8 -> 26         0.13244
      10 -> 27         0.21079
      12 -> 28         0.17592
      13 -> 30         0.59113

 Excited State 103:      Singlet-A2    29.0285 eV   42.71 nm  f=0.0000  <S**2>=0.000
       8 -> 27         0.53690
      11 -> 29        -0.30469
      12 -> 30        -0.32967

 Excited State 104:      Singlet-B2    29.0952 eV   42.61 nm  f=0.0007  <S**2>=0.000
       7 -> 27         0.31131
       8 -> 24         0.19196
       9 -> 25         0.45100
       9 -> 26        -0.33680
      10 -> 30        -0.14580

 Excited State 105:      Singlet-B1    29.1054 eV   42.60 nm  f=0.0003  <S**2>=0.000
       9 -> 27         0.60619
      11 -> 30        -0.24808
      12 -> 29        -0.24013

 Excited State 106:      Singlet-A1    29.3173 eV   42.29 nm  f=0.0092  <S**2>=0.000
       8 -> 25         0.56131
       8 -> 26        -0.32996
       9 -> 24         0.19329

 The electronic state is 1-A1.
 Alpha  occ. eigenvalues --  -24.82050 -24.82050 -10.44598  -1.36351  -1.30556
 Alpha  occ. eigenvalues --   -0.80960  -0.64701  -0.64337  -0.63981  -0.52148
 Alpha  occ. eigenvalues --   -0.50795  -0.49915  -0.43614
 Alpha virt. eigenvalues --    0.13582   0.16310   0.18136   0.18800   0.33167
 Alpha virt. eigenvalues --    0.33250   0.36436   0.36759   0.50256   0.50766
 Alpha virt. eigenvalues --    0.58390   0.62725   0.64092   0.65637   0.79819

 Mulliken charges:
               1
     1  F   -0.214944
     2  C    0.240463
     3  F   -0.214944
     4  H    0.094712
     5  H    0.094712
 Sum of Mulliken charges =   0.00000

 Dipole moment (field-independent basis, Debye):
    X=              0.0000    Y=             -0.0000    Z=              1.8897  Tot=              1.8897
 Quadrupole moment (field-independent basis, Debye-Ang):
   XX=            -15.1672   YY=            -18.8389   ZZ=            -15.2172
   XY=             -0.0000   XZ=              0.0000   YZ=             -0.0000

 Normal termination of Gaussian 16 at Sat Aug 14 06:20:53 2021.
