 Gaussian 16, Revision C.01,
 Gaussian 16:  EM64L-G16RevC.01  3-Jul-2019

 ----------------------------------------------------------------------
 #P TD(Nstates=10000) wB97XD/def2TZVP SCF(maxcycles=100) Int(Grid=ultra
 fine)
 ----------------------------------------------------------------------

 ---------------------
 xGDB7_00001_tier4.com
 ---------------------
 Symbolic Z-matrix:
 Charge =  0 Multiplicity = 1

                         Standard orientation:
 ---------------------------------------------------------------------
 Center     Atomic      Atomic             Coordinates (Angstroms)
 Number     Number       Type             X           Y           Z
 ---------------------------------------------------------------------
      1          6           0        0.000000    0.865978    0.000000
      2          6           0        0.749967   -0.432983    0.000000
      3          6           0       -0.749954   -0.432999    0.000000
      4          1           0       -0.000033    1.451806   -0.909176
      5          1           0       -0.000033    1.451806    0.909176
      6          1           0        1.257295   -0.725894    0.909177
      7          1           0        1.257295   -0.725894   -0.909177
      8          1           0       -1.257302   -0.725899    0.909179
      9          1           0       -1.257302   -0.725899   -0.909179
 ---------------------------------------------------------------------

 SCF Done:  E(RwB97XD) =  -117.901064752     A.U. after   12 cycles

 Excitation energies and oscillator strengths:

 Excited State   1:      Singlet-A'     8.9924 eV  137.88 nm  f=0.0067  <S**2>=0.000
      12 -> 13         0.70098
 This state for optimization and/or second-order correction.
 Total Energy, E(TD-HF/TD-DFT) =  -117.570599311
 Copying the excited state density for this state as the 1-particle RhoCI density.

 Excited State   2:      Singlet-A'     8.9926 eV  137.87 nm  f=0.0067  <S**2>=0.000
      11 -> 13         0.70098

 Excited State   3:      Singlet-A"     9.2300 eV  134.33 nm  f=0.0000  <S**2>=0.000
      12 -> 14         0.70087

 Excited State   4:      Singlet-A"     9.2302 eV  134.32 nm  f=0.0000  <S**2>=0.000
      11 -> 14         0.70087

 Excited State   5:      Singlet-A'     9.7859 eV  126.70 nm  f=0.0000  <S**2>=0.000
      11 -> 15         0.49079
      12 -> 16         0.49123

 Excited State   6:      Singlet-A'     9.9136 eV  125.06 nm  f=0.0000  <S**2>=0.000
      11 -> 16        -0.48632
      12 -> 15         0.48917

 Excited State   7:      Singlet-A'     9.9515 eV  124.59 nm  f=0.1333  <S**2>=0.000
      11 -> 15         0.48410
      12 -> 16        -0.48360

 Excited State   8:      Singlet-A'     9.9516 eV  124.59 nm  f=0.1333  <S**2>=0.000
      11 -> 16         0.48525
      12 -> 15         0.48245

 Excited State   9:      Singlet-A"    10.7471 eV  115.37 nm  f=0.0000  <S**2>=0.000
       9 -> 16         0.14112
      10 -> 13         0.66831
      10 -> 15        -0.14113

 Excited State  10:      Singlet-A"    10.7472 eV  115.36 nm  f=0.0000  <S**2>=0.000
       9 -> 13         0.66830
       9 -> 15         0.14113
      10 -> 16         0.14114

 Excited State  11:      Singlet-A'    11.0789 eV  111.91 nm  f=0.3709  <S**2>=0.000
      12 -> 17         0.65914

 Excited State  12:      Singlet-A'    11.0790 eV  111.91 nm  f=0.3709  <S**2>=0.000
      11 -> 17         0.65913

 Excited State  13:      Singlet-A'    11.4102 eV  108.66 nm  f=0.1547  <S**2>=0.000
      10 -> 14         0.68484
      12 -> 17        -0.10731

 Excited State  14:      Singlet-A'    11.4103 eV  108.66 nm  f=0.1547  <S**2>=0.000
       9 -> 14         0.68483
      11 -> 17         0.10731

 Excited State  15:      Singlet-A"    11.6293 eV  106.61 nm  f=0.4233  <S**2>=0.000
       9 -> 15        -0.48078
      10 -> 16         0.48089

 Excited State  16:      Singlet-A"    11.8068 eV  105.01 nm  f=0.0000  <S**2>=0.000
       9 -> 13         0.14098
       9 -> 15        -0.27143
       9 -> 16        -0.35874
       9 -> 17        -0.12637
      10 -> 13         0.13712
      10 -> 15         0.35938
      10 -> 16        -0.27147
      10 -> 17         0.12992

 Excited State  17:      Singlet-A"    11.8068 eV  105.01 nm  f=0.0000  <S**2>=0.000
       9 -> 13        -0.13714
       9 -> 15         0.35914
       9 -> 16        -0.27123
       9 -> 17        -0.12987
      10 -> 13         0.14096
      10 -> 15         0.27169
      10 -> 16         0.35898
      10 -> 17        -0.12634

 Excited State  18:      Singlet-A"    11.8511 eV  104.62 nm  f=0.0000  <S**2>=0.000
       9 -> 16         0.33617
      10 -> 15         0.33535
      11 -> 18        -0.35218
      12 -> 19         0.35245

 Excited State  19:      Singlet-A'    11.9232 eV  103.99 nm  f=0.0149  <S**2>=0.000
      12 -> 20         0.68749

 Excited State  20:      Singlet-A'    11.9234 eV  103.98 nm  f=0.0149  <S**2>=0.000
      11 -> 20         0.68749

 Excited State  21:      Singlet-A"    11.9581 eV  103.68 nm  f=0.0000  <S**2>=0.000
       9 -> 16         0.34693
      10 -> 15         0.34671
      11 -> 18         0.34322
      12 -> 19        -0.34364

 Excited State  22:      Singlet-A"    12.0707 eV  102.72 nm  f=0.0000  <S**2>=0.000
       9 -> 17        -0.18501
      11 -> 18         0.46750
      12 -> 19         0.46701

 Excited State  23:      Singlet-A"    12.0707 eV  102.72 nm  f=0.0000  <S**2>=0.000
      10 -> 17        -0.18506
      11 -> 19        -0.46705
      12 -> 18         0.46744

 Excited State  24:      Singlet-A"    12.3241 eV  100.60 nm  f=0.0336  <S**2>=0.000
      11 -> 19         0.47888
      12 -> 18         0.47869

 Excited State  25:      Singlet-A"    12.3632 eV  100.29 nm  f=0.0000  <S**2>=0.000
       9 -> 15         0.10990
       9 -> 17        -0.23648
      10 -> 16         0.10999
      10 -> 17         0.60158
      11 -> 19        -0.11906
      12 -> 18         0.11846

 Excited State  26:      Singlet-A"    12.3632 eV  100.28 nm  f=0.0000  <S**2>=0.000
       9 -> 16        -0.10995
       9 -> 17         0.60160
      10 -> 15         0.10991
      10 -> 17         0.23649
      11 -> 18         0.11874
      12 -> 19         0.11870

 Excited State  27:      Singlet-A'    12.4443 eV   99.63 nm  f=0.0000  <S**2>=0.000
      11 -> 21         0.10776
      11 -> 22        -0.48179
      12 -> 21         0.48267
      12 -> 22         0.10783

 Excited State  28:      Singlet-A'    12.5829 eV   98.53 nm  f=0.0788  <S**2>=0.000
      11 -> 21        -0.47666
      12 -> 22         0.47686

 Excited State  29:      Singlet-A'    12.5829 eV   98.53 nm  f=0.0788  <S**2>=0.000
      11 -> 22         0.47716
      12 -> 21         0.47636

 Excited State  30:      Singlet-A'    12.7628 eV   97.14 nm  f=0.0000  <S**2>=0.000
       7 -> 14        -0.11035
       9 -> 18        -0.12356
      10 -> 19        -0.12356
      11 -> 21         0.45927
      11 -> 22         0.10272
      12 -> 21        -0.10255
      12 -> 22         0.45899

 Excited State  31:      Singlet-A'    13.7670 eV   90.06 nm  f=0.0000  <S**2>=0.000
       7 -> 14         0.10603
       9 -> 18         0.34616
      10 -> 19         0.34625
      11 -> 24         0.33130
      12 -> 23        -0.33159

 Excited State  32:      Singlet-A"    13.8746 eV   89.36 nm  f=0.0000  <S**2>=0.000
       7 -> 16         0.13277
      10 -> 20         0.65922

 Excited State  33:      Singlet-A"    13.8747 eV   89.36 nm  f=0.0000  <S**2>=0.000
       7 -> 15        -0.13278
       9 -> 20         0.65922

 Excited State  34:      Singlet-A'    13.8832 eV   89.31 nm  f=0.0000  <S**2>=0.000
       8 -> 13         0.67404

 Excited State  35:      Singlet-A'    14.0040 eV   88.53 nm  f=0.0000  <S**2>=0.000
      11 -> 23         0.49480
      12 -> 24         0.49649

 Excited State  36:      Singlet-A'    14.0316 eV   88.36 nm  f=0.1457  <S**2>=0.000
       8 -> 15        -0.11139
       9 -> 18         0.20194
       9 -> 19         0.12108
      10 -> 18         0.12108
      10 -> 19        -0.20173
      11 -> 23         0.18001
      11 -> 24         0.37817
      12 -> 23         0.37804
      12 -> 24        -0.17944

 Excited State  37:      Singlet-A'    14.0316 eV   88.36 nm  f=0.1457  <S**2>=0.000
       8 -> 16        -0.11138
       9 -> 18        -0.12112
       9 -> 19         0.20183
      10 -> 18         0.20187
      10 -> 19         0.12105
      11 -> 23         0.37903
      11 -> 24        -0.17984
      12 -> 23        -0.17960
      12 -> 24        -0.37716

 Excited State  38:      Singlet-A"    14.1037 eV   87.91 nm  f=0.0240  <S**2>=0.000
       8 -> 14         0.66347
       9 -> 22        -0.13467
      10 -> 21        -0.13472

 Excited State  39:      Singlet-A'    14.2119 eV   87.24 nm  f=0.0137  <S**2>=0.000
       9 -> 18         0.19969
       9 -> 19         0.38114
      10 -> 18         0.38131
      10 -> 19        -0.19970
      11 -> 23        -0.18870
      11 -> 24        -0.12334
      12 -> 23        -0.12336
      12 -> 24         0.18860

 Excited State  40:      Singlet-A'    14.2119 eV   87.24 nm  f=0.0137  <S**2>=0.000
       9 -> 18        -0.38119
       9 -> 19         0.19965
      10 -> 18         0.19973
      10 -> 19         0.38127
      11 -> 23        -0.12341
      11 -> 24         0.18865
      12 -> 23         0.18863
      12 -> 24         0.12332

 Excited State  41:      Singlet-A"    14.4627 eV   85.73 nm  f=0.0000  <S**2>=0.000
       7 -> 16         0.12558
       9 -> 21        -0.26189
       9 -> 22        -0.38299
      10 -> 21         0.38341
      10 -> 22        -0.26194
      11 -> 25         0.15494

 Excited State  42:      Singlet-A"    14.4627 eV   85.73 nm  f=0.0000  <S**2>=0.000
       7 -> 15         0.12558
       9 -> 21         0.38322
       9 -> 22        -0.26183
      10 -> 21         0.26199
      10 -> 22         0.38317
      12 -> 25        -0.15499

 Excited State  43:      Singlet-A'    14.5068 eV   85.47 nm  f=0.0000  <S**2>=0.000
       9 -> 19         0.49576
      10 -> 18        -0.49557

 Excited State  44:      Singlet-A"    14.5615 eV   85.15 nm  f=0.0000  <S**2>=0.000
       9 -> 16         0.10449
       9 -> 21         0.46323
       9 -> 22         0.12490
      10 -> 15         0.10448
      10 -> 21         0.12474
      10 -> 22        -0.46323

 Excited State  45:      Singlet-A"    14.5632 eV   85.14 nm  f=0.5461  <S**2>=0.000
       7 -> 13        -0.33132
       8 -> 14         0.16751
       9 -> 21        -0.10046
       9 -> 22         0.37328
      10 -> 21         0.37286
      10 -> 22         0.10059
      11 -> 27         0.16025
      12 -> 28         0.16018

 Excited State  46:      Singlet-A'    14.7373 eV   84.13 nm  f=0.2061  <S**2>=0.000
       8 -> 15         0.64244
       8 -> 16        -0.20537
      11 -> 24         0.10602
      12 -> 23         0.10606

 Excited State  47:      Singlet-A'    14.7373 eV   84.13 nm  f=0.2061  <S**2>=0.000
       8 -> 15         0.20538
       8 -> 16         0.64245
      11 -> 23         0.10604
      12 -> 24        -0.10602

 Excited State  48:      Singlet-A"    14.8435 eV   83.53 nm  f=0.0298  <S**2>=0.000
       7 -> 13         0.60528
       9 -> 22         0.23607
      10 -> 21         0.23601

 Excited State  49:      Singlet-A'    14.8880 eV   83.28 nm  f=0.0000  <S**2>=0.000
       7 -> 14         0.37577
       8 -> 13         0.17428
       9 -> 18        -0.29503
      10 -> 19        -0.29499
      11 -> 24         0.26170
      12 -> 23        -0.26160

 Excited State  50:      Singlet-A"    14.9143 eV   83.13 nm  f=0.0000  <S**2>=0.000
       9 -> 20         0.13260
      12 -> 25         0.66126

 Excited State  51:      Singlet-A"    14.9145 eV   83.13 nm  f=0.0000  <S**2>=0.000
      10 -> 20         0.13258
      11 -> 25         0.66127

 Excited State  52:      Singlet-A'    15.1214 eV   81.99 nm  f=0.0000  <S**2>=0.000
       8 -> 17         0.69779

 Excited State  53:      Singlet-A'    15.5193 eV   79.89 nm  f=0.2795  <S**2>=0.000
      12 -> 26         0.67807

 Excited State  54:      Singlet-A'    15.5195 eV   79.89 nm  f=0.2795  <S**2>=0.000
      11 -> 26         0.67807

 Excited State  55:      Singlet-A"    15.6506 eV   79.22 nm  f=0.0000  <S**2>=0.000
       7 -> 15         0.57892
       9 -> 20         0.14595
       9 -> 22         0.10918
       9 -> 23        -0.17981
      10 -> 21        -0.10918
      10 -> 24        -0.17975
      12 -> 25        -0.10179

 Excited State  56:      Singlet-A"    15.6506 eV   79.22 nm  f=0.0000  <S**2>=0.000
       7 -> 16         0.57891
       9 -> 21         0.10918
       9 -> 24         0.17975
      10 -> 20        -0.14594
      10 -> 22         0.10919
      10 -> 23        -0.17984
      11 -> 25         0.10183

 Excited State  57:      Singlet-A'    15.7101 eV   78.92 nm  f=0.0000  <S**2>=0.000
       7 -> 14         0.53392
       8 -> 20        -0.23674
      11 -> 24        -0.22353
      12 -> 23         0.22350

 Excited State  58:      Singlet-A"    15.7740 eV   78.60 nm  f=0.0029  <S**2>=0.000
       7 -> 20        -0.11041
       9 -> 23        -0.36971
      10 -> 24         0.36988
      11 -> 27         0.30934
      12 -> 28         0.30871

 Excited State  59:      Singlet-A"    15.8842 eV   78.05 nm  f=0.0000  <S**2>=0.000
      11 -> 27         0.10429
      11 -> 28         0.46678
      12 -> 27         0.46997
      12 -> 28        -0.10431

 Excited State  60:      Singlet-A"    15.8842 eV   78.05 nm  f=0.0000  <S**2>=0.000
      11 -> 27        -0.46820
      11 -> 28         0.10401
      12 -> 27         0.10460
      12 -> 28         0.46855

 Excited State  61:      Singlet-A"    15.9659 eV   77.66 nm  f=0.0000  <S**2>=0.000
       9 -> 24        -0.17257
      10 -> 23        -0.17329
      11 -> 28         0.46539
      12 -> 27        -0.46214

 Excited State  62:      Singlet-A"    15.9836 eV   77.57 nm  f=0.0000  <S**2>=0.000
       7 -> 17         0.69351

 Excited State  63:      Singlet-A"    16.1781 eV   76.64 nm  f=0.0000  <S**2>=0.000
       7 -> 15        -0.21017
       7 -> 16         0.21996
       9 -> 23        -0.26455
       9 -> 24        -0.34423
      10 -> 23         0.34447
      10 -> 24        -0.26456

 Excited State  64:      Singlet-A"    16.1781 eV   76.64 nm  f=0.0000  <S**2>=0.000
       7 -> 15         0.21994
       7 -> 16         0.21018
       9 -> 23         0.34436
       9 -> 24        -0.26444
      10 -> 23         0.26465
      10 -> 24         0.34436

 Excited State  65:      Singlet-A"    16.2826 eV   76.15 nm  f=0.0000  <S**2>=0.000
       9 -> 24         0.45687
      10 -> 23         0.45642
      11 -> 28         0.18151
      12 -> 27        -0.18125

 Excited State  66:      Singlet-A"    16.5920 eV   74.73 nm  f=0.9405  <S**2>=0.000
       8 -> 14        -0.10329
       9 -> 23         0.32031
      10 -> 24        -0.32029
      11 -> 27         0.33966
      12 -> 28         0.33978

 Excited State  67:      Singlet-A"    16.7484 eV   74.03 nm  f=0.0000  <S**2>=0.000
       5 -> 14         0.18822
       8 -> 18         0.65090

 Excited State  68:      Singlet-A"    16.7484 eV   74.03 nm  f=0.0000  <S**2>=0.000
       6 -> 14         0.18823
       8 -> 19         0.65089

 Excited State  69:      Singlet-A'    17.0589 eV   72.68 nm  f=0.0000  <S**2>=0.000
       7 -> 14         0.18208
       8 -> 20         0.63992

 Excited State  70:      Singlet-A'    17.1624 eV   72.24 nm  f=0.1764  <S**2>=0.000
       6 -> 13        -0.16617
       8 -> 21        -0.14513
      10 -> 25         0.60808
      11 -> 31        -0.12019
      12 -> 32         0.12022

 Excited State  71:      Singlet-A'    17.1624 eV   72.24 nm  f=0.1764  <S**2>=0.000
       5 -> 13        -0.16614
       8 -> 22        -0.14525
       9 -> 25         0.60808
      11 -> 32         0.12019
      12 -> 31         0.12021

 Excited State  72:      Singlet-A'    17.2981 eV   71.68 nm  f=0.0611  <S**2>=0.000
       6 -> 13        -0.17321
       8 -> 21         0.53070
      12 -> 29        -0.35873

 Excited State  73:      Singlet-A'    17.2982 eV   71.67 nm  f=0.0612  <S**2>=0.000
       5 -> 13        -0.17325
       8 -> 22         0.53068
      11 -> 29         0.35872

 Excited State  74:      Singlet-A"    17.3584 eV   71.43 nm  f=0.0000  <S**2>=0.000
       7 -> 21        -0.10663
      10 -> 26         0.67487

 Excited State  75:      Singlet-A"    17.3585 eV   71.43 nm  f=0.0000  <S**2>=0.000
       7 -> 22        -0.10664
       9 -> 26         0.67487

 Excited State  76:      Singlet-A'    17.6423 eV   70.28 nm  f=0.0000  <S**2>=0.000
       9 -> 27         0.49024
      10 -> 28        -0.48980

 Excited State  77:      Singlet-A'    17.8086 eV   69.62 nm  f=0.0308  <S**2>=0.000
       6 -> 13         0.59611
       7 -> 19         0.13621
       8 -> 21         0.22518
      10 -> 25         0.21306

 Excited State  78:      Singlet-A'    17.8087 eV   69.62 nm  f=0.0308  <S**2>=0.000
       5 -> 13         0.59612
       7 -> 18         0.13639
       8 -> 22         0.22511
       9 -> 25         0.21301

 Excited State  79:      Singlet-A"    17.8787 eV   69.35 nm  f=0.1417  <S**2>=0.000
       7 -> 20         0.67598

 Excited State  80:      Singlet-A'    17.8976 eV   69.27 nm  f=0.0293  <S**2>=0.000
       7 -> 18         0.10362
       7 -> 19        -0.33030
       8 -> 21         0.17190
       9 -> 27         0.25833
       9 -> 28         0.15094
      10 -> 27        -0.15118
      10 -> 28         0.25856
      12 -> 29         0.36207

 Excited State  81:      Singlet-A'    17.8976 eV   69.27 nm  f=0.0292  <S**2>=0.000
       7 -> 18         0.33080
       7 -> 19         0.10327
       8 -> 22        -0.17198
       9 -> 27        -0.15102
       9 -> 28         0.25805
      10 -> 27        -0.25837
      10 -> 28        -0.15127
      11 -> 29         0.36198

 Excited State  82:      Singlet-A'    17.9199 eV   69.19 nm  f=0.1590  <S**2>=0.000
       5 -> 13        -0.12888
       7 -> 18         0.54510
       8 -> 23        -0.10528
       9 -> 28        -0.24302
      10 -> 27         0.24334

 Excited State  83:      Singlet-A'    17.9199 eV   69.19 nm  f=0.1588  <S**2>=0.000
       6 -> 13        -0.12872
       7 -> 19         0.54550
       8 -> 24         0.10524
       9 -> 27         0.24272
      10 -> 28         0.24297

 Excited State  84:      Singlet-A'    18.0057 eV   68.86 nm  f=0.0000  <S**2>=0.000
       5 -> 16         0.13258
       6 -> 15         0.13265
      11 -> 31         0.34787
      11 -> 32        -0.25549
      11 -> 35         0.15231
      12 -> 31         0.25561
      12 -> 32         0.34799
      12 -> 34         0.15234

 Excited State  85:      Singlet-A"    18.0290 eV   68.77 nm  f=0.0000  <S**2>=0.000
       6 -> 14         0.55884
       7 -> 21         0.12364
       8 -> 19        -0.20221
      11 -> 30         0.31960

 Excited State  86:      Singlet-A"    18.0290 eV   68.77 nm  f=0.0000  <S**2>=0.000
       5 -> 14         0.55858
       7 -> 22         0.12368
       8 -> 18        -0.20214
      12 -> 30         0.32007

 Excited State  87:      Singlet-A'    18.1472 eV   68.32 nm  f=0.0210  <S**2>=0.000
       6 -> 13        -0.12559
       8 -> 21         0.16861
       8 -> 24         0.19794
       9 -> 27        -0.22707
      10 -> 25        -0.11541
      10 -> 28        -0.22718
      11 -> 31        -0.22144
      11 -> 32         0.13353
      12 -> 29         0.27625
      12 -> 31         0.13349
      12 -> 32         0.22114

 Excited State  88:      Singlet-A'    18.1472 eV   68.32 nm  f=0.0210  <S**2>=0.000
       5 -> 13         0.12561
       8 -> 22        -0.16862
       8 -> 23         0.19803
       9 -> 25         0.11540
       9 -> 28        -0.22661
      10 -> 27         0.22755
      11 -> 29         0.27627
      11 -> 31        -0.13346
      11 -> 32        -0.22121
      12 -> 31        -0.22130
      12 -> 32         0.13357

 Excited State  89:      Singlet-A"    18.1715 eV   68.23 nm  f=0.0000  <S**2>=0.000
       5 -> 14        -0.35224
       7 -> 22         0.16928
      12 -> 30         0.57031

 Excited State  90:      Singlet-A"    18.1716 eV   68.23 nm  f=0.0000  <S**2>=0.000
       6 -> 14        -0.35182
       7 -> 21         0.16965
      11 -> 30         0.57046

 Excited State  91:      Singlet-A'    18.2689 eV   67.87 nm  f=0.0000  <S**2>=0.000
       8 -> 20         0.10149
       9 -> 28         0.47984
      10 -> 27         0.47900

 Excited State  92:      Singlet-A"    18.3445 eV   67.59 nm  f=0.0000  <S**2>=0.000
       7 -> 21         0.63819
      11 -> 30        -0.22119

 Excited State  93:      Singlet-A"    18.3445 eV   67.59 nm  f=0.0000  <S**2>=0.000
       7 -> 22         0.63827
      12 -> 30        -0.22090

 Excited State  94:      Singlet-A'    18.3530 eV   67.56 nm  f=0.0000  <S**2>=0.000
      11 -> 31         0.27001
      11 -> 32         0.36763
      11 -> 34         0.14636
      12 -> 31        -0.36760
      12 -> 32         0.27000
      12 -> 35        -0.14634

 Excited State  95:      Singlet-A'    18.4332 eV   67.26 nm  f=0.0325  <S**2>=0.000
       5 -> 15        -0.15629
       5 -> 16        -0.34089
       6 -> 15         0.34099
       6 -> 16        -0.15625
       7 -> 19         0.10493
       8 -> 23         0.16029
       8 -> 24        -0.23167
      11 -> 29        -0.11192
      11 -> 32         0.10706
      12 -> 29         0.13477
      12 -> 31         0.10671

 Excited State  96:      Singlet-A'    18.4332 eV   67.26 nm  f=0.0325  <S**2>=0.000
       5 -> 15         0.34090
       5 -> 16        -0.15626
       6 -> 15         0.15630
       6 -> 16         0.34094
       7 -> 18        -0.10492
       8 -> 23        -0.23163
       8 -> 24        -0.16030
      11 -> 29         0.13485
      11 -> 31        -0.10695
      12 -> 29         0.11191
      12 -> 32         0.10686

 Excited State  97:      Singlet-A'    18.7282 eV   66.20 nm  f=0.0000  <S**2>=0.000
       5 -> 16         0.45906
       6 -> 15         0.45899
      11 -> 31        -0.11196
      12 -> 32        -0.11199

 Excited State  98:      Singlet-A'    18.8025 eV   65.94 nm  f=0.0000  <S**2>=0.000
       5 -> 15         0.46187
       6 -> 16        -0.46183

 Excited State  99:      Singlet-A'    19.0313 eV   65.15 nm  f=0.0348  <S**2>=0.000
       5 -> 15         0.16095
       6 -> 16         0.16092
       6 -> 17        -0.30999
       8 -> 23         0.48826
       8 -> 24        -0.12963

 The electronic state is 1-A'.
 Alpha  occ. eigenvalues --  -10.28038 -10.27997 -10.27997  -0.95191  -0.69124
 Alpha  occ. eigenvalues --   -0.69123  -0.58491  -0.55182  -0.44503  -0.44502
 Alpha  occ. eigenvalues --   -0.37779  -0.37779
 Alpha virt. eigenvalues --    0.13122   0.14415   0.15786   0.15786   0.20597
 Alpha virt. eigenvalues --    0.23622   0.23622   0.24082   0.26809   0.26809
 Alpha virt. eigenvalues --    0.32053   0.32053   0.36612   0.37910   0.39930

 Mulliken charges:
               1
     1  C   -0.218644
     2  C   -0.218640
     3  C   -0.218647
     4  H    0.109317
     5  H    0.109317
     6  H    0.109325
     7  H    0.109325
     8  H    0.109324
     9  H    0.109324
 Sum of Mulliken charges =  -0.00000

 Dipole moment (field-independent basis, Debye):
    X=             -0.0000    Y=              0.0000    Z=              0.0000  Tot=              0.0000
 Quadrupole moment (field-independent basis, Debye-Ang):
   XX=            -20.6545   YY=            -20.6545   ZZ=            -18.2809
   XY=             -0.0001   XZ=              0.0000   YZ=             -0.0000

 1\1\GINC-HEL17\SP\RwB97XD TD-FC\def2TZVP\C3H6\PRAKRITI\14-Aug-2021\0\\
 #P TD(Nstates=10000) wB97XD/def2TZVP SCF(maxcycles=100) Int(Grid=ultra
 fine)\\xGDB7_00001_tier4.com\\0,1\C,0,0.516845,0.69483,0.\C,0,-0.86016
 6,0.100195,0.\C,0,0.343308,-0.795021,0.\H,0,0.866514,1.164858,0.909176
 \H,0,0.866513,1.164859,-0.909176\H,0,-1.442047,0.167964,-0.909177\H,0,
 -1.442048,0.167965,0.909176\H,0,0.575574,-1.332837,-0.909179\H,0,0.575
 574,-1.332837,0.909179\\Version=EM64L-G16RevC.01\State=1-A'\HF=-117.90
 10648\RMSD=1.345e-09\PG=CS [SG(C3),X(H6)]\\@

 Normal termination of Gaussian 16 at Sat Aug 14 06:23:35 2021.
