 Gaussian 16, Revision C.01,
 Gaussian 16:  EM64L-G16RevC.01  3-Jul-2019

 ----------------------------------------------------------------------
 #P TD(Nstates=10000) wB97XD/def2TZVP SCF(maxcycles=100) Int(Grid=ultra
 fine)
 ----------------------------------------------------------------------

 ---------------------
 xGDB7_00001_tier4.com
 ---------------------
 Symbolic Z-matrix:
 Charge =  0 Multiplicity = 1

                         Standard orientation:
 ---------------------------------------------------------------------
 Center     Atomic      Atomic             Coordinates (Angstroms)
 Number     Number       Type             X           Y           Z
 ---------------------------------------------------------------------
      1          6           0        0.037922   -0.393776    0.738519
      2          6           0        0.037922   -0.393776   -0.738519
      3          7           0        0.037922    0.865964    0.000000
      4          1           0        0.953211   -0.606479    1.276872
      5          1           0       -0.870248   -0.700655    1.244917
      6          1           0       -0.870248   -0.700655   -1.244917
      7          1           0        0.953211   -0.606479   -1.276872
      8          1           0       -0.886454    1.277834    0.000000
 ---------------------------------------------------------------------

 SCF Done:  E(RwB97XD) =  -133.930738842     A.U. after   13 cycles

 Excitation energies and oscillator strengths:

 Excited State   1:      Singlet-A'     7.2088 eV  171.99 nm  f=0.0037  <S**2>=0.000
      12 -> 13         0.69000
      12 -> 14        -0.11490
 This state for optimization and/or second-order correction.
 Total Energy, E(TD-HF/TD-DFT) =  -133.665819731
 Copying the excited state density for this state as the 1-particle RhoCI density.

 Excited State   2:      Singlet-A'     8.4098 eV  147.43 nm  f=0.0477  <S**2>=0.000
      12 -> 13         0.11884
      12 -> 14         0.68771

 Excited State   3:      Singlet-A"     8.7462 eV  141.76 nm  f=0.0520  <S**2>=0.000
      12 -> 15         0.62688
      12 -> 17        -0.30985

 Excited State   4:      Singlet-A'     8.8944 eV  139.40 nm  f=0.0670  <S**2>=0.000
      12 -> 16         0.68574

 Excited State   5:      Singlet-A"     9.2968 eV  133.36 nm  f=0.0085  <S**2>=0.000
      12 -> 15         0.30990
      12 -> 17         0.61246

 Excited State   6:      Singlet-A'     9.5315 eV  130.08 nm  f=0.0501  <S**2>=0.000
      11 -> 13         0.68619

 Excited State   7:      Singlet-A"     9.8102 eV  126.38 nm  f=0.0006  <S**2>=0.000
      10 -> 13         0.69291

 Excited State   8:      Singlet-A'    10.5029 eV  118.05 nm  f=0.0463  <S**2>=0.000
      11 -> 13         0.10408
      11 -> 14         0.52424
      12 -> 19        -0.45085

 Excited State   9:      Singlet-A'    10.6973 eV  115.90 nm  f=0.0162  <S**2>=0.000
      11 -> 14         0.45110
      12 -> 19         0.51762

 Excited State  10:      Singlet-A"    10.7057 eV  115.81 nm  f=0.0203  <S**2>=0.000
       9 -> 13         0.47829
      10 -> 13        -0.10185
      10 -> 14        -0.37020
      11 -> 15         0.31265

 Excited State  11:      Singlet-A"    10.8411 eV  114.36 nm  f=0.1442  <S**2>=0.000
       9 -> 13         0.42981
      10 -> 14         0.49494
      12 -> 18         0.20488

 Excited State  12:      Singlet-A"    10.9307 eV  113.43 nm  f=0.0059  <S**2>=0.000
      10 -> 14        -0.18692
      12 -> 18         0.65783

 Excited State  13:      Singlet-A'    11.0050 eV  112.66 nm  f=0.0286  <S**2>=0.000
      11 -> 16         0.68268

 Excited State  14:      Singlet-A"    11.1126 eV  111.57 nm  f=0.2553  <S**2>=0.000
       9 -> 13        -0.20537
      10 -> 14         0.25373
      10 -> 16        -0.16871
      11 -> 15         0.56704
      11 -> 17        -0.12014

 Excited State  15:      Singlet-A"    11.2409 eV  110.30 nm  f=0.0016  <S**2>=0.000
       9 -> 13        -0.10341
       9 -> 14         0.26499
      10 -> 16         0.53752
      11 -> 15         0.20573
      11 -> 17         0.26446

 Excited State  16:      Singlet-A'    11.3322 eV  109.41 nm  f=0.0006  <S**2>=0.000
      10 -> 15         0.66633
      10 -> 17        -0.12943
      12 -> 20         0.15410

 Excited State  17:      Singlet-A'    11.4337 eV  108.44 nm  f=0.0423  <S**2>=0.000
       9 -> 15         0.21919
      10 -> 15        -0.13715
      12 -> 20         0.63554

 Excited State  18:      Singlet-A"    11.5853 eV  107.02 nm  f=0.0727  <S**2>=0.000
       9 -> 14         0.54131
      10 -> 16        -0.35666
      11 -> 17         0.19685

 Excited State  19:      Singlet-A"    11.7195 eV  105.79 nm  f=0.0393  <S**2>=0.000
       9 -> 14        -0.28314
      10 -> 16        -0.18129
      11 -> 17         0.55680
      12 -> 21        -0.10930
      12 -> 22        -0.15493

 Excited State  20:      Singlet-A'    11.8553 eV  104.58 nm  f=0.0674  <S**2>=0.000
       9 -> 15         0.56610
       9 -> 17        -0.34479
      12 -> 20        -0.20540

 Excited State  21:      Singlet-A"    11.9279 eV  103.94 nm  f=0.0121  <S**2>=0.000
       9 -> 14        -0.11135
       9 -> 16        -0.19300
      12 -> 21         0.63637
      12 -> 22         0.13452

 Excited State  22:      Singlet-A'    12.1472 eV  102.07 nm  f=0.2430  <S**2>=0.000
      10 -> 15         0.15791
      10 -> 17         0.63063
      11 -> 19         0.15781
      12 -> 23        -0.12432

 Excited State  23:      Singlet-A"    12.2729 eV  101.02 nm  f=0.1806  <S**2>=0.000
       9 -> 14        -0.10141
       9 -> 16         0.65203
      12 -> 21         0.17665

 Excited State  24:      Singlet-A'    12.4708 eV   99.42 nm  f=0.1253  <S**2>=0.000
       9 -> 15         0.31904
       9 -> 17         0.58258
      11 -> 19         0.13731

 Excited State  25:      Singlet-A"    12.9613 eV   95.66 nm  f=0.0043  <S**2>=0.000
      10 -> 19         0.12033
      11 -> 18         0.20133
      12 -> 21        -0.15510
      12 -> 22         0.61973

 Excited State  26:      Singlet-A'    12.9706 eV   95.59 nm  f=0.0789  <S**2>=0.000
       9 -> 17        -0.12810
      10 -> 17        -0.13254
      11 -> 19         0.64440

 Excited State  27:      Singlet-A"    12.9876 eV   95.46 nm  f=0.0236  <S**2>=0.000
      10 -> 19         0.16112
      11 -> 18         0.63160
      12 -> 22        -0.21371

 Excited State  28:      Singlet-A"    13.1363 eV   94.38 nm  f=0.0289  <S**2>=0.000
      10 -> 19         0.66168
      11 -> 18        -0.18194

 Excited State  29:      Singlet-A'    13.3462 eV   92.90 nm  f=0.0412  <S**2>=0.000
       8 -> 13         0.32303
      10 -> 18         0.60776

 Excited State  30:      Singlet-A'    13.5492 eV   91.51 nm  f=0.0318  <S**2>=0.000
       8 -> 13         0.52103
       9 -> 18        -0.14860
      10 -> 18        -0.31963
      11 -> 20         0.27885

 Excited State  31:      Singlet-A'    13.7606 eV   90.10 nm  f=0.0299  <S**2>=0.000
       8 -> 13        -0.30067
       9 -> 18        -0.13301
      11 -> 20         0.56255
      12 -> 23        -0.15005

 Excited State  32:      Singlet-A"    13.7945 eV   89.88 nm  f=0.0138  <S**2>=0.000
       8 -> 15         0.11034
      10 -> 20         0.67379

 Excited State  33:      Singlet-A"    14.0507 eV   88.24 nm  f=0.0361  <S**2>=0.000
       9 -> 19        -0.25718
       9 -> 20        -0.10830
      10 -> 20        -0.10608
      11 -> 21         0.60449
      11 -> 22         0.13518

 Excited State  34:      Singlet-A'    14.0879 eV   88.01 nm  f=0.0537  <S**2>=0.000
       8 -> 14        -0.31815
       9 -> 18        -0.36029
      12 -> 23         0.41599
      12 -> 24         0.15290
      12 -> 25        -0.15939

 Excited State  35:      Singlet-A'    14.2034 eV   87.29 nm  f=0.0001  <S**2>=0.000
       9 -> 18         0.10430
      10 -> 21        -0.13830
      12 -> 23        -0.17835
      12 -> 24         0.62406

 Excited State  36:      Singlet-A"    14.2223 eV   87.18 nm  f=0.0532  <S**2>=0.000
       9 -> 19         0.62985
      11 -> 21         0.26416

 Excited State  37:      Singlet-A"    14.3330 eV   86.50 nm  f=0.0196  <S**2>=0.000
       8 -> 15        -0.43426
       8 -> 17         0.21614
       9 -> 20         0.46808

 Excited State  38:      Singlet-A'    14.3478 eV   86.41 nm  f=0.0172  <S**2>=0.000
       8 -> 14        -0.42874
       9 -> 18         0.46457
      10 -> 22        -0.13787
      11 -> 20         0.17612
      12 -> 23         0.12845
      12 -> 24        -0.11149

 Excited State  39:      Singlet-A'    14.5009 eV   85.50 nm  f=0.0245  <S**2>=0.000
       9 -> 18         0.12855
      10 -> 21         0.57432
      12 -> 23         0.12118
      12 -> 24         0.19327
      12 -> 25         0.25516

 Excited State  40:      Singlet-A'    14.6287 eV   84.75 nm  f=0.2132  <S**2>=0.000
       7 -> 13         0.30307
       8 -> 14         0.38365
       9 -> 18         0.17756
      10 -> 22        -0.11445
      12 -> 23         0.31847
      12 -> 25        -0.24154

 Excited State  41:      Singlet-A"    14.7769 eV   83.90 nm  f=0.0365  <S**2>=0.000
       8 -> 15         0.30774
       8 -> 17        -0.41416
       9 -> 20         0.44336

 Excited State  42:      Singlet-A'    14.9032 eV   83.19 nm  f=0.1593  <S**2>=0.000
       7 -> 13         0.45135
       8 -> 14        -0.13229
      10 -> 21         0.19975
      10 -> 22         0.11430
      12 -> 23        -0.27310
      12 -> 25        -0.27867
      12 -> 29        -0.10481

 Excited State  43:      Singlet-A'    15.0190 eV   82.55 nm  f=0.1143  <S**2>=0.000
       7 -> 13         0.28724
       8 -> 16         0.31874
      10 -> 21        -0.25506
      10 -> 22         0.34189
      12 -> 25         0.29784

 Excited State  44:      Singlet-A'    15.0857 eV   82.19 nm  f=0.1363  <S**2>=0.000
       7 -> 13        -0.19435
       8 -> 16         0.54391
       9 -> 18         0.10559
       9 -> 21        -0.17443
      12 -> 25        -0.30406

 Excited State  45:      Singlet-A"    15.1543 eV   81.81 nm  f=0.0183  <S**2>=0.000
       8 -> 15         0.16212
       8 -> 17         0.24222
      11 -> 21        -0.14114
      11 -> 22         0.58946
      12 -> 26         0.13819

 Excited State  46:      Singlet-A"    15.3593 eV   80.72 nm  f=0.0661  <S**2>=0.000
       8 -> 15         0.40076
       8 -> 17         0.44709
       9 -> 20         0.18714
      11 -> 22        -0.26587

 Excited State  47:      Singlet-A'    15.4419 eV   80.29 nm  f=0.3041  <S**2>=0.000
       7 -> 14        -0.14882
       8 -> 16         0.13844
       9 -> 21         0.61686
       9 -> 22         0.11763
      11 -> 23        -0.11939

 Excited State  48:      Singlet-A"    15.5317 eV   79.83 nm  f=0.0613  <S**2>=0.000
      11 -> 22        -0.12110
      12 -> 26         0.67787

 Excited State  49:      Singlet-A'    15.7095 eV   78.92 nm  f=0.0944  <S**2>=0.000
       7 -> 14         0.50343
       7 -> 16         0.11082
       9 -> 21         0.10824
       9 -> 22        -0.20114
      10 -> 22        -0.11440
      11 -> 23        -0.14111
      12 -> 27        -0.31297

 Excited State  50:      Singlet-A'    15.9458 eV   77.75 nm  f=0.0745  <S**2>=0.000
       7 -> 14         0.32015
       7 -> 16         0.18866
       9 -> 21         0.11700
      10 -> 22         0.30076
      11 -> 24        -0.16886
      12 -> 25        -0.10208
      12 -> 27         0.39340

 Excited State  51:      Singlet-A"    16.0400 eV   77.30 nm  f=0.0085  <S**2>=0.000
       7 -> 15         0.50185
       7 -> 17        -0.46900

 Excited State  52:      Singlet-A'    16.0761 eV   77.12 nm  f=0.0637  <S**2>=0.000
       7 -> 13         0.17514
       7 -> 14         0.15206
       7 -> 16        -0.26659
       9 -> 18        -0.10402
      10 -> 22        -0.35633
      12 -> 25         0.16881
      12 -> 27         0.37939

 Excited State  53:      Singlet-A'    16.2842 eV   76.14 nm  f=0.0217  <S**2>=0.000
       7 -> 14         0.20762
       7 -> 16        -0.21059
       8 -> 19        -0.15588
       9 -> 21         0.10914
       9 -> 22         0.25168
      11 -> 23         0.49945
      11 -> 24        -0.11240
      12 -> 27        -0.11447

 Excited State  54:      Singlet-A'    16.4021 eV   75.59 nm  f=0.1250  <S**2>=0.000
       7 -> 14         0.12312
       7 -> 16        -0.11698
       8 -> 19        -0.12955
       9 -> 21        -0.11500
       9 -> 22         0.49818
      11 -> 23        -0.39280

 Excited State  55:      Singlet-A"    16.5787 eV   74.79 nm  f=0.0966  <S**2>=0.000
       7 -> 15         0.18285
       7 -> 17         0.22365
      10 -> 23         0.59871
      10 -> 24        -0.18103

 Excited State  56:      Singlet-A'    16.6119 eV   74.64 nm  f=0.1193  <S**2>=0.000
       7 -> 14         0.11693
       7 -> 16        -0.32682
       8 -> 20        -0.13237
       9 -> 22        -0.10513
      10 -> 22         0.20449
      11 -> 24         0.47735
      11 -> 25        -0.12331
      12 -> 25        -0.13584

 Excited State  57:      Singlet-A'    16.6258 eV   74.57 nm  f=0.0941  <S**2>=0.000
       7 -> 16         0.35133
       8 -> 19         0.24561
       9 -> 22         0.29405
      11 -> 23         0.17210
      11 -> 24         0.39529

 Excited State  58:      Singlet-A"    16.6489 eV   74.47 nm  f=0.0053  <S**2>=0.000
       7 -> 15         0.39436
       7 -> 17         0.43383
       8 -> 18        -0.22477
      10 -> 23        -0.24195

 Excited State  59:      Singlet-A"    16.6886 eV   74.29 nm  f=0.0693  <S**2>=0.000
       8 -> 18         0.41508
      10 -> 24         0.51782
      10 -> 25        -0.10385

 Excited State  60:      Singlet-A"    16.8815 eV   73.44 nm  f=0.0002  <S**2>=0.000
       6 -> 13        -0.11482
       8 -> 18         0.45760
       9 -> 23        -0.10883
      10 -> 23        -0.21765
      10 -> 24        -0.39909
      10 -> 25        -0.12067

 Excited State  61:      Singlet-A'    16.9116 eV   73.31 nm  f=0.0764  <S**2>=0.000
       7 -> 16        -0.21435
       8 -> 19         0.52727
      11 -> 24        -0.12073
      12 -> 27        -0.10738
      12 -> 29         0.32229

 Excited State  62:      Singlet-A"    17.0503 eV   72.72 nm  f=0.0253  <S**2>=0.000
       9 -> 23        -0.10307
      10 -> 25        -0.27842
      12 -> 28         0.58420
      12 -> 31        -0.17179

 Excited State  63:      Singlet-A'    17.2138 eV   72.03 nm  f=0.0379  <S**2>=0.000
       8 -> 20        -0.18587
      11 -> 25         0.58436
      11 -> 27        -0.19910
      12 -> 29        -0.13942
      12 -> 30         0.12752

 Excited State  64:      Singlet-A"    17.2206 eV   72.00 nm  f=0.0576  <S**2>=0.000
       6 -> 13        -0.13337
       9 -> 23        -0.25531
      10 -> 25         0.53424
      10 -> 27        -0.15841
      12 -> 28         0.21450

 Excited State  65:      Singlet-A'    17.3937 eV   71.28 nm  f=0.0767  <S**2>=0.000
       7 -> 19        -0.15098
       8 -> 19        -0.24330
       8 -> 20         0.14668
      10 -> 26        -0.11654
      11 -> 24         0.10593
      11 -> 25         0.22076
      11 -> 27         0.10902
      12 -> 29         0.47712
      12 -> 30        -0.16988

 Excited State  66:      Singlet-A"    17.4486 eV   71.06 nm  f=0.0037  <S**2>=0.000
       9 -> 23         0.57138
       9 -> 24         0.26460
      10 -> 25         0.14536
      12 -> 28         0.11552
      12 -> 31        -0.13674

 Excited State  67:      Singlet-A'    17.6517 eV   70.24 nm  f=0.0122  <S**2>=0.000
       7 -> 16        -0.11541
       8 -> 19         0.11141
       8 -> 20         0.59146
      12 -> 30         0.20863

 Excited State  68:      Singlet-A"    17.6925 eV   70.08 nm  f=0.0503  <S**2>=0.000
       6 -> 13        -0.29370
       8 -> 21        -0.16321
       8 -> 22        -0.10485
       9 -> 23        -0.11483
       9 -> 24         0.41701
      10 -> 25        -0.16671
      10 -> 27        -0.22071
      12 -> 28        -0.15095
      12 -> 31        -0.17146

 Excited State  69:      Singlet-A"    17.7334 eV   69.92 nm  f=0.0016  <S**2>=0.000
       6 -> 13        -0.34388
       9 -> 23         0.10404
       9 -> 24        -0.17730
      10 -> 25        -0.10697
      10 -> 27        -0.14905
      11 -> 26         0.41158
      12 -> 31         0.31342

 Excited State  70:      Singlet-A'    17.7979 eV   69.66 nm  f=0.0342  <S**2>=0.000
       8 -> 20        -0.12529
      10 -> 26        -0.11079
      12 -> 29         0.19509
      12 -> 30         0.60398

 Excited State  71:      Singlet-A"    17.8542 eV   69.44 nm  f=0.1213  <S**2>=0.000
       6 -> 13         0.38437
       7 -> 18         0.14539
       9 -> 23        -0.12837
       9 -> 24         0.29926
       9 -> 25         0.13814
      11 -> 26         0.38757
      12 -> 31         0.13276

 Excited State  72:      Singlet-A"    18.0108 eV   68.84 nm  f=0.0000  <S**2>=0.000
       9 -> 24         0.18451
      10 -> 27        -0.18748
      11 -> 26        -0.38698
      12 -> 28         0.12961
      12 -> 31         0.45367
      12 -> 33        -0.10721

 Excited State  73:      Singlet-A"    18.0492 eV   68.69 nm  f=0.0411  <S**2>=0.000
       7 -> 18         0.11077
       8 -> 21         0.57689
       9 -> 25         0.17905
      10 -> 25        -0.10133
      10 -> 27        -0.17020
      12 -> 28        -0.11745
      12 -> 31        -0.12586

 Excited State  74:      Singlet-A'    18.1401 eV   68.35 nm  f=0.0526  <S**2>=0.000
       7 -> 19        -0.35116
      10 -> 26         0.35872
      11 -> 25         0.10381
      11 -> 27         0.38825
      12 -> 29        -0.11150
      12 -> 32         0.13977

 Excited State  75:      Singlet-A"    18.1857 eV   68.18 nm  f=0.0008  <S**2>=0.000
       6 -> 13        -0.27900
       7 -> 18         0.41604
       8 -> 21        -0.13934
       9 -> 25         0.31198
      10 -> 27         0.26790

 Excited State  76:      Singlet-A'    18.1948 eV   68.14 nm  f=0.0817  <S**2>=0.000
       7 -> 20         0.13414
      10 -> 26         0.47270
      11 -> 27        -0.40152
      12 -> 29         0.17176

 Excited State  77:      Singlet-A'    18.3399 eV   67.60 nm  f=0.0105  <S**2>=0.000
       7 -> 19         0.48405
      10 -> 26         0.25236
      11 -> 25         0.15381
      11 -> 27         0.28613
      12 -> 32        -0.23399

 Excited State  78:      Singlet-A"    18.3640 eV   67.51 nm  f=0.0083  <S**2>=0.000
       6 -> 14         0.18058
       7 -> 18        -0.41269
       8 -> 21        -0.10809
       9 -> 25         0.43201
       9 -> 27        -0.19836

 Excited State  79:      Singlet-A"    18.5366 eV   66.89 nm  f=0.1477  <S**2>=0.000
       6 -> 14         0.27624
       8 -> 21         0.19823
       8 -> 22        -0.10777
       9 -> 24         0.16002
       9 -> 25        -0.10723
       9 -> 27         0.13783
      10 -> 27         0.40409
      11 -> 28        -0.23983
      11 -> 31         0.11952
      12 -> 31         0.17146

 Excited State  80:      Singlet-A"    18.5751 eV   66.75 nm  f=0.0188  <S**2>=0.000
       6 -> 14         0.50546
       6 -> 16         0.15516
       7 -> 18         0.17180
       8 -> 22        -0.17129
      11 -> 28         0.26731
      11 -> 31        -0.17015

 Excited State  81:      Singlet-A'    18.6903 eV   66.34 nm  f=0.0730  <S**2>=0.000
       5 -> 13         0.32837
       6 -> 15         0.28288
       6 -> 17        -0.15503
       7 -> 19         0.23640
       7 -> 20         0.21148
      10 -> 26        -0.10222
      12 -> 32         0.34800

 Excited State  82:      Singlet-A'    18.8074 eV   65.92 nm  f=0.0139  <S**2>=0.000
       6 -> 15        -0.23263
       7 -> 19         0.10958
       7 -> 20        -0.34106
       9 -> 26        -0.25045
      10 -> 28         0.13526
      12 -> 32         0.43772

 Excited State  83:      Singlet-A'    18.9207 eV   65.53 nm  f=0.0108  <S**2>=0.000
       5 -> 13         0.53521
       7 -> 20        -0.33005
      12 -> 32        -0.22692

 Excited State  84:      Singlet-A"    19.0760 eV   64.99 nm  f=0.0104  <S**2>=0.000
       6 -> 14        -0.23436
       6 -> 16         0.45577
       7 -> 18        -0.15545
       8 -> 22        -0.38404
       9 -> 25         0.16070

 Excited State  85:      Singlet-A'    19.1628 eV   64.70 nm  f=0.0285  <S**2>=0.000
       5 -> 13        -0.22123
       6 -> 15         0.45976
       6 -> 17        -0.20161
       7 -> 20        -0.22078
       9 -> 26        -0.23830
      11 -> 29         0.12412
      12 -> 35         0.11628

 Excited State  86:      Singlet-A"    19.1818 eV   64.64 nm  f=0.0004  <S**2>=0.000
       6 -> 14         0.12571
       6 -> 16         0.43583
       7 -> 21        -0.13545
       8 -> 21        -0.11672
       8 -> 22         0.42812
       9 -> 25        -0.10136
      11 -> 28        -0.17851

 Excited State  87:      Singlet-A'    19.3432 eV   64.10 nm  f=0.1537  <S**2>=0.000
       5 -> 14         0.15367
       6 -> 15         0.16163
       7 -> 20        -0.29994
       9 -> 26         0.50135
      10 -> 28         0.15374
      11 -> 29        -0.18481

 Excited State  88:      Singlet-A"    19.4181 eV   63.85 nm  f=0.0004  <S**2>=0.000
       7 -> 18        -0.10588
       7 -> 21         0.46280
       8 -> 22         0.14048
       9 -> 25        -0.13519
      11 -> 28         0.18554
      12 -> 33        -0.38557

 Excited State  89:      Singlet-A"    19.4871 eV   63.62 nm  f=0.0336  <S**2>=0.000
       7 -> 21         0.41291
      10 -> 29        -0.12787
      11 -> 31        -0.10340
      12 -> 33         0.50171

 Excited State  90:      Singlet-A'    19.5525 eV   63.41 nm  f=0.0012  <S**2>=0.000
       6 -> 15         0.14713
       9 -> 26        -0.14878
      10 -> 28         0.55765
      10 -> 31        -0.28474

 Excited State  91:      Singlet-A"    19.6002 eV   63.26 nm  f=0.0376  <S**2>=0.000
       7 -> 21         0.10343
       8 -> 22         0.10557
       9 -> 25         0.22858
       9 -> 27         0.51577
      10 -> 27        -0.11797
      10 -> 29         0.21933
      11 -> 28        -0.16021
      11 -> 31        -0.15040

 Excited State  92:      Singlet-A'    19.6889 eV   62.97 nm  f=0.1270  <S**2>=0.000
       5 -> 14         0.15977

 The electronic state is 1-A'.
 Alpha  occ. eigenvalues --  -14.42806 -10.30935 -10.30904  -1.05974  -0.75423
 Alpha  occ. eigenvalues --   -0.71114  -0.61165  -0.55810  -0.45847  -0.43038
 Alpha  occ. eigenvalues --   -0.41946  -0.33491
 Alpha virt. eigenvalues --    0.11515   0.14612   0.15962   0.16964   0.19478
 Alpha virt. eigenvalues --    0.22852   0.23357   0.26509   0.28669   0.32981
 Alpha virt. eigenvalues --    0.37147   0.37633   0.40451   0.42908   0.44859

 Mulliken charges:
               1
     1  C   -0.127147
     2  C   -0.127147
     3  N   -0.388081
     4  H    0.107880
     5  H    0.106700
     6  H    0.106700
     7  H    0.107880
     8  H    0.213212
 Sum of Mulliken charges =  -0.00000

 Dipole moment (field-independent basis, Debye):
    X=             -1.3450    Y=             -1.0910    Z=              0.0000  Tot=              1.7318
 Quadrupole moment (field-independent basis, Debye-Ang):
   XX=            -17.5321   YY=            -21.1707   ZZ=            -18.5081
   XY=             -2.2003   XZ=              0.0000   YZ=             -0.0000

 Normal termination of Gaussian 16 at Sat Aug 14 06:23:40 2021.
