 Gaussian 16, Revision C.01,
 Gaussian 16:  EM64L-G16RevC.01  3-Jul-2019

 ----------------------------------------------------------------------
 #P TD(Nstates=10000) wB97XD/def2TZVP SCF(maxcycles=100) Int(Grid=ultra
 fine)
 ----------------------------------------------------------------------

 ---------------------
 xGDB7_00001_tier4.com
 ---------------------
 Symbolic Z-matrix:
 Charge =  0 Multiplicity = 1

                         Standard orientation:
 ---------------------------------------------------------------------
 Center     Atomic      Atomic             Coordinates (Angstroms)
 Number     Number       Type             X           Y           Z
 ---------------------------------------------------------------------
      1          6           0        0.000284   -0.018657   -1.236532
      2          6           0       -0.000055    0.003295    0.218717
      3          6           0       -0.000323    0.021367    1.415619
      4          1           0        0.273656    0.958689   -1.636635
      5          1           0       -0.987794   -0.279414   -1.618263
      6          1           0        0.715256   -0.752703   -1.610700
      7          1           0       -0.000556    0.037402    2.478776
 ---------------------------------------------------------------------

 SCF Done:  E(RwB97XD) =  -116.654910381     A.U. after   12 cycles

 Excitation energies and oscillator strengths:

 Excited State   1:      Singlet-A      6.7644 eV  183.29 nm  f=0.0000  <S**2>=0.000
      10 -> 12         0.35531
      10 -> 13        -0.33827
      11 -> 12        -0.33830
      11 -> 13        -0.35530
 This state for optimization and/or second-order correction.
 Total Energy, E(TD-HF/TD-DFT) =  -116.406324598
 Copying the excited state density for this state as the 1-particle RhoCI density.

 Excited State   2:      Singlet-A      7.0148 eV  176.75 nm  f=0.0009  <S**2>=0.000
      10 -> 12         0.20395
      10 -> 13         0.44768
      11 -> 12        -0.44766
      11 -> 13         0.20398

 Excited State   3:      Singlet-A      7.0148 eV  176.75 nm  f=0.0009  <S**2>=0.000
      10 -> 12         0.44767
      10 -> 13        -0.20396
      11 -> 12         0.20396
      11 -> 13         0.44767

 Excited State   4:      Singlet-A      8.4797 eV  146.21 nm  f=0.0069  <S**2>=0.000
      11 -> 14         0.68523
      11 -> 18         0.14048

 Excited State   5:      Singlet-A      8.4797 eV  146.21 nm  f=0.0069  <S**2>=0.000
      10 -> 14         0.68522
      10 -> 18         0.14048

 Excited State   6:      Singlet-A      9.2933 eV  133.41 nm  f=0.0013  <S**2>=0.000
      11 -> 15         0.69840

 Excited State   7:      Singlet-A      9.2933 eV  133.41 nm  f=0.0013  <S**2>=0.000
      10 -> 15         0.69840

 Excited State   8:      Singlet-A      9.7873 eV  126.68 nm  f=0.9869  <S**2>=0.000
      10 -> 12         0.31230
      10 -> 13         0.32801
      10 -> 16         0.16783
      11 -> 12         0.32801
      11 -> 13        -0.31230
      11 -> 17         0.16783

 Excited State   9:      Singlet-A     10.6553 eV  116.36 nm  f=0.1391  <S**2>=0.000
      10 -> 16         0.38747
      10 -> 17         0.11577
      10 -> 18        -0.24808
      10 -> 19         0.12845
      11 -> 16         0.11749
      11 -> 17        -0.38661
      11 -> 18        -0.24120
      11 -> 19         0.12489

 Excited State  10:      Singlet-A     10.6553 eV  116.36 nm  f=0.1391  <S**2>=0.000
      10 -> 16        -0.11651
      10 -> 17         0.38690
      10 -> 18        -0.24107
      10 -> 19         0.12482
      11 -> 16         0.38736
      11 -> 17         0.11675
      11 -> 18         0.24801
      11 -> 19        -0.12841

 Excited State  11:      Singlet-A     10.6642 eV  116.26 nm  f=0.0000  <S**2>=0.000
      10 -> 16        -0.21622
      10 -> 17         0.43615
      11 -> 16        -0.43534
      11 -> 17        -0.21771

 Excited State  12:      Singlet-A     10.6947 eV  115.93 nm  f=0.0984  <S**2>=0.000
      10 -> 16         0.10959
      10 -> 17        -0.25258
      10 -> 18        -0.31281
      10 -> 19         0.14510
      11 -> 16        -0.25245
      11 -> 17        -0.10947
      11 -> 18         0.40739
      11 -> 19        -0.18896

 Excited State  13:      Singlet-A     10.6947 eV  115.93 nm  f=0.0983  <S**2>=0.000
      10 -> 16         0.25265
      10 -> 17         0.10948
      10 -> 18         0.40735
      10 -> 19        -0.18894
      11 -> 16         0.10955
      11 -> 17        -0.25262
      11 -> 18         0.31272
      11 -> 19        -0.14505

 Excited State  14:      Singlet-A     11.1575 eV  111.12 nm  f=0.3637  <S**2>=0.000
      10 -> 12        -0.11671
      10 -> 13        -0.12259
      10 -> 16         0.40806
      10 -> 17         0.20319
      11 -> 12        -0.12259
      11 -> 13         0.11672
      11 -> 16        -0.20317
      11 -> 17         0.40806

 Excited State  15:      Singlet-A     11.5209 eV  107.62 nm  f=0.0048  <S**2>=0.000
      10 -> 18         0.10248
      10 -> 19         0.22464
      11 -> 18         0.26608
      11 -> 19         0.58326

 Excited State  16:      Singlet-A     11.5209 eV  107.62 nm  f=0.0048  <S**2>=0.000
      10 -> 18         0.26609
      10 -> 19         0.58325
      11 -> 18        -0.10248
      11 -> 19        -0.22464

 Excited State  17:      Singlet-A     12.1790 eV  101.80 nm  f=0.0007  <S**2>=0.000
      10 -> 20         0.46873
      10 -> 23        -0.12771
      11 -> 21         0.46864
      11 -> 24        -0.12768

 Excited State  18:      Singlet-A     12.1790 eV  101.80 nm  f=0.0007  <S**2>=0.000
      10 -> 21        -0.46867
      10 -> 24         0.12769
      11 -> 20         0.46870
      11 -> 23        -0.12770

 Excited State  19:      Singlet-A     12.2419 eV  101.28 nm  f=0.0000  <S**2>=0.000
       8 -> 12        -0.32560
       8 -> 13         0.21808
       9 -> 12         0.21824
       9 -> 13         0.32568
      10 -> 20         0.28651
      11 -> 21        -0.28657

 Excited State  20:      Singlet-A     12.3235 eV  100.61 nm  f=0.0478  <S**2>=0.000
       7 -> 12         0.51847
       7 -> 13        -0.10061
       8 -> 12        -0.13487
       8 -> 13        -0.22918
       9 -> 12         0.22924
       9 -> 13        -0.13486
       9 -> 14        -0.18409
      11 -> 22        -0.12136

 Excited State  21:      Singlet-A     12.3235 eV  100.61 nm  f=0.0478  <S**2>=0.000
       7 -> 12         0.10064
       7 -> 13         0.51853
       8 -> 12        -0.22925
       8 -> 13         0.13481
       8 -> 14        -0.18401
       9 -> 12        -0.13480
       9 -> 13        -0.22912
      10 -> 22        -0.12136

 Excited State  22:      Singlet-A     12.3589 eV  100.32 nm  f=0.0000  <S**2>=0.000
       8 -> 12        -0.24568
       8 -> 13         0.16464
       9 -> 12         0.16466
       9 -> 13         0.24586
      10 -> 20        -0.37718
      11 -> 21         0.37726

 Excited State  23:      Singlet-A     12.4588 eV   99.52 nm  f=0.0867  <S**2>=0.000
       8 -> 13        -0.22623
       9 -> 12         0.22629
       9 -> 14         0.60568
      11 -> 22         0.10981

 Excited State  24:      Singlet-A     12.4589 eV   99.51 nm  f=0.0866  <S**2>=0.000
       8 -> 12        -0.22616
       8 -> 14         0.60574
       9 -> 13        -0.22620
      10 -> 22         0.10984

 Excited State  25:      Singlet-A     12.5893 eV   98.48 nm  f=0.0980  <S**2>=0.000
       7 -> 12         0.19982
       7 -> 13         0.32949
       8 -> 12         0.33952
       8 -> 14         0.24781
       9 -> 13         0.33939
      10 -> 22        -0.11436

 Excited State  26:      Singlet-A     12.5893 eV   98.48 nm  f=0.0979  <S**2>=0.000
       7 -> 12         0.32957
       7 -> 13        -0.19983
       8 -> 13         0.33946
       9 -> 12        -0.33937
       9 -> 14         0.24781
      11 -> 22        -0.11439

 Excited State  27:      Singlet-A     12.7652 eV   97.13 nm  f=0.0008  <S**2>=0.000
       7 -> 14         0.27774
       8 -> 13         0.13309
       9 -> 12         0.13305
      10 -> 21         0.40067
      11 -> 20         0.40063

 Excited State  28:      Singlet-A     13.0889 eV   94.72 nm  f=0.0007  <S**2>=0.000
       7 -> 12         0.12308
       7 -> 13        -0.13433
      11 -> 22         0.65875

 Excited State  29:      Singlet-A     13.0889 eV   94.72 nm  f=0.0007  <S**2>=0.000
       7 -> 12         0.13433
       7 -> 13         0.12307
      10 -> 22         0.65875

 Excited State  30:      Singlet-A     13.1595 eV   94.22 nm  f=0.0013  <S**2>=0.000
       7 -> 14        -0.30862
       8 -> 12         0.23465
       8 -> 13         0.35026
       9 -> 12         0.35020
       9 -> 13        -0.23461

 Excited State  31:      Singlet-A     13.3617 eV   92.79 nm  f=0.1474  <S**2>=0.000
       7 -> 14         0.55163
       8 -> 13         0.12509
       9 -> 12         0.12508
      10 -> 21        -0.23389
      11 -> 20        -0.23388

 Excited State  32:      Singlet-A     14.1165 eV   87.83 nm  f=0.0025  <S**2>=0.000
      10 -> 20         0.14277
      10 -> 23         0.39526
      10 -> 24         0.22361
      11 -> 21         0.14275
      11 -> 23        -0.22359
      11 -> 24         0.39516

 Excited State  33:      Singlet-A     14.1165 eV   87.83 nm  f=0.0025  <S**2>=0.000
      10 -> 21        -0.14275
      10 -> 23         0.22376
      10 -> 24        -0.39507
      11 -> 20         0.14277
      11 -> 23         0.39535
      11 -> 24         0.22346

 Excited State  34:      Singlet-A     14.1660 eV   87.52 nm  f=0.0000  <S**2>=0.000
      10 -> 20        -0.11372
      10 -> 23        -0.37431
      10 -> 24        -0.29550
      11 -> 21         0.11375
      11 -> 23        -0.29519
      11 -> 24         0.37458

 Excited State  35:      Singlet-A     14.4026 eV   86.08 nm  f=0.3475  <S**2>=0.000
       6 -> 15        -0.28252
       7 -> 15         0.37274
      10 -> 23         0.22482
      10 -> 24        -0.28506
      11 -> 23        -0.28501
      11 -> 24        -0.22483

 Excited State  36:      Singlet-A     14.5586 eV   85.16 nm  f=0.0000  <S**2>=0.000
       8 -> 16         0.14217
       8 -> 17        -0.47280
       9 -> 16         0.47449
       9 -> 17         0.14195

 Excited State  37:      Singlet-A     14.5928 eV   84.96 nm  f=0.0783  <S**2>=0.000
       8 -> 16         0.32135
       8 -> 17        -0.28037
       8 -> 18         0.10511
       9 -> 15        -0.13382
       9 -> 16        -0.27929
       9 -> 17        -0.32110
       9 -> 18        -0.17119
       9 -> 19        -0.12705

 Excited State  38:      Singlet-A     14.5928 eV   84.96 nm  f=0.0783  <S**2>=0.000
       8 -> 15        -0.13374
       8 -> 16         0.27951
       8 -> 17         0.32202
       8 -> 18        -0.17113
       8 -> 19        -0.12701
       9 -> 16         0.32050
       9 -> 17        -0.28005
       9 -> 18        -0.10520

 Excited State  39:      Singlet-A     14.7173 eV   84.24 nm  f=0.0088  <S**2>=0.000
       6 -> 12         0.38340
       6 -> 13        -0.25063
       7 -> 17         0.27830
       8 -> 16        -0.14389
       9 -> 15        -0.21827
       9 -> 17         0.14399
       9 -> 18        -0.24991
       9 -> 19        -0.16738

 Excited State  40:      Singlet-A     14.7174 eV   84.24 nm  f=0.0088  <S**2>=0.000
       6 -> 12         0.25067
       6 -> 13         0.38343
       7 -> 16         0.27840
       8 -> 15        -0.21825
       8 -> 17        -0.14384
       8 -> 18        -0.24990
       8 -> 19        -0.16737
       9 -> 16        -0.14376

 Excited State  41:      Singlet-A     14.8436 eV   83.53 nm  f=0.1478  <S**2>=0.000
       7 -> 15         0.35332
       7 -> 19         0.14509
       7 -> 22        -0.14493
       8 -> 16        -0.34239
       8 -> 17        -0.10267
       9 -> 16         0.10268
       9 -> 17        -0.34228
      10 -> 24         0.12664
      11 -> 23         0.12664

 Excited State  42:      Singlet-A     14.8769 eV   83.34 nm  f=0.1832  <S**2>=0.000
       6 -> 12         0.23763
       6 -> 13        -0.17139
       7 -> 17         0.28970
       8 -> 16         0.10829
       9 -> 15         0.34450
       9 -> 17        -0.10819
       9 -> 18         0.29176
       9 -> 19         0.22002

 Excited State  43:      Singlet-A     14.8770 eV   83.34 nm  f=0.1831  <S**2>=0.000
       6 -> 12         0.17135
       6 -> 13         0.23757
       7 -> 16         0.28961
       8 -> 15         0.34457
       8 -> 17         0.10822
       8 -> 18         0.29185
       8 -> 19         0.22007
       9 -> 16         0.10817

 Excited State  44:      Singlet-A     15.3245 eV   80.91 nm  f=0.0744  <S**2>=0.000
       7 -> 15         0.36248
       7 -> 18         0.24777
       8 -> 16         0.27808
       9 -> 17         0.27944
      10 -> 23        -0.13442
      10 -> 24         0.17034
      11 -> 23         0.17038
      11 -> 24         0.13432

 Excited State  45:      Singlet-A     15.3281 eV   80.89 nm  f=0.0441  <S**2>=0.000
       6 -> 12         0.17328
       6 -> 13        -0.35986
       6 -> 16         0.10738
       7 -> 16         0.38783
       7 -> 17        -0.35958

 Excited State  46:      Singlet-A     15.3281 eV   80.89 nm  f=0.0441  <S**2>=0.000
       6 -> 12        -0.35985
       6 -> 13        -0.17328
       6 -> 17         0.10739
       7 -> 16         0.35960
       7 -> 17         0.38785

 Excited State  47:      Singlet-A     15.4489 eV   80.25 nm  f=0.0099  <S**2>=0.000
       9 -> 15         0.51192
       9 -> 18        -0.44864
       9 -> 22        -0.11255

 Excited State  48:      Singlet-A     15.4490 eV   80.25 nm  f=0.0099  <S**2>=0.000
       8 -> 15         0.51192
       8 -> 18        -0.44864
       8 -> 22        -0.11255

 Excited State  49:      Singlet-A     15.9043 eV   77.96 nm  f=0.0976  <S**2>=0.000
       6 -> 14        -0.38841
       7 -> 15        -0.10296
       7 -> 18         0.50935

 Excited State  50:      Singlet-A     16.0470 eV   77.26 nm  f=0.0012  <S**2>=0.000
       9 -> 15        -0.17753
       9 -> 18        -0.28287
       9 -> 19         0.57406
       9 -> 22        -0.20276

 Excited State  51:      Singlet-A     16.0472 eV   77.26 nm  f=0.0012  <S**2>=0.000
       8 -> 15        -0.17753
       8 -> 18        -0.28286
       8 -> 19         0.57406
       8 -> 22        -0.20275

 Excited State  52:      Singlet-A     16.3151 eV   75.99 nm  f=0.0314  <S**2>=0.000
       6 -> 14         0.53208
       6 -> 18         0.16483
       7 -> 15        -0.12237
       7 -> 18         0.35251

 Excited State  53:      Singlet-A     16.3669 eV   75.75 nm  f=0.0075  <S**2>=0.000
      10 -> 25        -0.16422
      10 -> 26         0.45820
      11 -> 25         0.45824
      11 -> 26         0.16423

 Excited State  54:      Singlet-A     16.3669 eV   75.75 nm  f=0.0075  <S**2>=0.000
      10 -> 25         0.45825
      10 -> 26         0.16420
      11 -> 25         0.16426
      11 -> 26        -0.45820

 Excited State  55:      Singlet-A     16.4931 eV   75.17 nm  f=0.0000  <S**2>=0.000
       8 -> 20         0.15019
       9 -> 21        -0.15018
      10 -> 25        -0.28613
      10 -> 26         0.36187
      11 -> 25        -0.36181
      11 -> 26        -0.28619

 Excited State  56:      Singlet-A     16.6006 eV   74.69 nm  f=0.0924  <S**2>=0.000
       6 -> 15         0.44052
       7 -> 15         0.23666
       7 -> 19        -0.34622
       8 -> 21        -0.10317
       9 -> 20        -0.10321
      10 -> 25         0.15345
      10 -> 26         0.12137
      11 -> 25        -0.12134
      11 -> 26         0.15346

 Excited State  57:      Singlet-A     16.6860 eV   74.30 nm  f=0.0000  <S**2>=0.000
       8 -> 20        -0.41145
       8 -> 21        -0.16407
       9 -> 20        -0.16413
       9 -> 21         0.41147
      10 -> 25        -0.10570
      10 -> 26         0.13366
      11 -> 25        -0.13365
      11 -> 26        -0.10570

 Excited State  58:      Singlet-A     16.8646 eV   73.52 nm  f=0.0046  <S**2>=0.000
       6 -> 15         0.17734
       7 -> 18        -0.14645
       7 -> 19         0.45597
       7 -> 22         0.13345
       8 -> 20         0.10366
       8 -> 21        -0.25993
       9 -> 20        -0.26009
       9 -> 21        -0.10374

 Excited State  59:      Singlet-A     17.0282 eV   72.81 nm  f=0.1373  <S**2>=0.000
       7 -> 20         0.14383
       8 -> 20         0.19566
       8 -> 21        -0.25455
       9 -> 20         0.25456
       9 -> 21         0.19569
      10 -> 27         0.15722
      11 -> 27         0.42833
      11 -> 28         0.10670

 Excited State  60:      Singlet-A     17.0283 eV   72.81 nm  f=0.1372  <S**2>=0.000
       7 -> 21         0.14375
       8 -> 20        -0.25451
       8 -> 21        -0.19563
       9 -> 20         0.19564
       9 -> 21        -0.25446
      10 -> 27         0.42846
      10 -> 28         0.10672
      11 -> 27        -0.15726

 Excited State  61:      Singlet-A     17.1009 eV   72.50 nm  f=0.1088  <S**2>=0.000
       7 -> 20        -0.21111
       7 -> 21        -0.10481
       8 -> 20        -0.18622
       8 -> 21         0.19782
       9 -> 20        -0.19791
       9 -> 21        -0.18628
      10 -> 27         0.12523
      11 -> 27         0.48627

 Excited State  62:      Singlet-A     17.1010 eV   72.50 nm  f=0.1089  <S**2>=0.000
       7 -> 20         0.10486
       7 -> 21        -0.21111
       8 -> 20         0.19797
       8 -> 21         0.18631
       9 -> 20        -0.18630
       9 -> 21         0.19793
      10 -> 27         0.48616
      11 -> 27        -0.12517

 Excited State  63:      Singlet-A     17.2375 eV   71.93 nm  f=0.0089  <S**2>=0.000
       6 -> 15         0.37055
       7 -> 19         0.23953
       8 -> 20        -0.12077
       8 -> 21         0.30278
       9 -> 20         0.30253
       9 -> 21         0.12065

 Excited State  64:      Singlet-A     17.3809 eV   71.33 nm  f=0.0337  <S**2>=0.000
       7 -> 20         0.54212
       7 -> 21        -0.31643
       8 -> 20        -0.18813
       9 -> 21        -0.18815

 Excited State  65:      Singlet-A     17.3810 eV   71.33 nm  f=0.0337  <S**2>=0.000
       7 -> 20         0.31641
       7 -> 21         0.54214
       8 -> 21         0.18812
       9 -> 20        -0.18811

 Excited State  66:      Singlet-A     17.6801 eV   70.13 nm  f=0.0000  <S**2>=0.000
       9 -> 18        -0.12923
       9 -> 19         0.17819
       9 -> 22         0.63756
      11 -> 29        -0.11738

 Excited State  67:      Singlet-A     17.6802 eV   70.13 nm  f=0.0000  <S**2>=0.000
       8 -> 18        -0.12923
       8 -> 19         0.17819
       8 -> 22         0.63755
      10 -> 29        -0.11739

 Excited State  68:      Singlet-A     17.7120 eV   70.00 nm  f=0.0426  <S**2>=0.000
       6 -> 15        -0.14532
       6 -> 18        -0.15154
       7 -> 19         0.20565
       7 -> 22        -0.13383
      10 -> 25         0.31659
      10 -> 26         0.25038
      11 -> 25        -0.25037
      11 -> 26         0.31660

 Excited State  69:      Singlet-A     18.3126 eV   67.70 nm  f=0.0070  <S**2>=0.000
      11 -> 27        -0.11312
      11 -> 28         0.63277
      11 -> 29         0.21847

 Excited State  70:      Singlet-A     18.3126 eV   67.70 nm  f=0.0070  <S**2>=0.000
      10 -> 27        -0.11312
      10 -> 28         0.63277
      10 -> 29         0.21848

 Excited State  71:      Singlet-A     18.4028 eV   67.37 nm  f=0.0067  <S**2>=0.000
       6 -> 16         0.63255
       6 -> 17        -0.22478
       7 -> 16        -0.11981

 Excited State  72:      Singlet-A     18.4028 eV   67.37 nm  f=0.0067  <S**2>=0.000
       6 -> 16         0.22476
       6 -> 17         0.63257
       7 -> 17        -0.11982

 Excited State  73:      Singlet-A     18.4044 eV   67.37 nm  f=0.0167  <S**2>=0.000
       6 -> 14        -0.14382
       6 -> 18         0.51688
       6 -> 19        -0.38967
       7 -> 22        -0.11707

 Excited State  74:      Singlet-A     18.7298 eV   66.20 nm  f=0.0051  <S**2>=0.000
      10 -> 29        -0.16787
      11 -> 28        -0.22077
      11 -> 29         0.61791

 Excited State  75:      Singlet-A     18.7298 eV   66.20 nm  f=0.0051  <S**2>=0.000
      10 -> 28        -0.22077
      10 -> 29         0.61790
      11 -> 29         0.16787

 Excited State  76:      Singlet-A     18.8428 eV   65.80 nm  f=0.5156  <S**2>=0.000
       7 -> 22         0.41578
       8 -> 21         0.12851
       8 -> 23         0.26060
       8 -> 24        -0.23437
       9 -> 20         0.12857
       9 -> 23        -0.23455
       9 -> 24        -0.26092

 Excited State  77:      Singlet-A     18.8856 eV   65.65 nm  f=0.0870  <S**2>=0.000
       6 -> 20         0.35433
       7 -> 23         0.43101
       7 -> 24         0.30713
       8 -> 23         0.13997
       9 -> 24         0.13953

 Excited State  78:      Singlet-A     18.8856 eV   65.65 nm  f=0.0870  <S**2>=0.000
       6 -> 21         0.35434
       7 -> 23        -0.30720
       7 -> 24         0.43099
       8 -> 24        -0.13969
       9 -> 23         0.13968

 Excited State  79:      Singlet-A     18.9651 eV   65.37 nm  f=0.0000  <S**2>=0.000
       8 -> 20        -0.12899
       8 -> 23         0.31412
       8 -> 24         0.34914
       9 -> 21         0.12916
       9 -> 23         0.35013
       9 -> 24        -0.31463

 Excited State  80:      Singlet-A     19.0102 eV   65.22 nm  f=0.0151  <S**2>=0.000
       7 -> 23        -0.19108
       8 -> 23         0.27721
       8 -> 24         0.33933
       9 -> 23        -0.33843
       9 -> 24         0.27647
      10 -> 30        -0.11022
      11 -> 31         0.11010

 Excited State  81:      Singlet-A     19.0103 eV   65.22 nm  f=0.0150  <S**2>=0.000
       7 -> 24        -0.19125
       8 -> 23         0.33878
       8 -> 24        -0.27691
       9 -> 23         0.27672

 The electronic state is 1-A.
 Alpha  occ. eigenvalues --  -10.30547 -10.28755 -10.27077  -0.88283  -0.80122
 Alpha  occ. eigenvalues --   -0.61806  -0.54188  -0.52207  -0.52207  -0.35388
 Alpha  occ. eigenvalues --   -0.35388
 Alpha virt. eigenvalues --    0.11618   0.11618   0.12023   0.15664   0.20194
 Alpha virt. eigenvalues --    0.20194   0.21920   0.23757   0.28403   0.28403
 Alpha virt. eigenvalues --    0.31467   0.34835   0.34835   0.44607   0.44607

 Mulliken charges:
               1
     1  C   -0.384182
     2  C   -0.090790
     3  C   -0.163085
     4  H    0.148425
     5  H    0.148426
     6  H    0.148420
     7  H    0.192787
 Sum of Mulliken charges =  -0.00000

 Dipole moment (field-independent basis, Debye):
    X=              0.0002    Y=             -0.0124    Z=             -0.8186  Tot=              0.8187
 Quadrupole moment (field-independent basis, Debye-Ang):
   XX=            -19.5835   YY=            -19.5821   ZZ=            -13.8345
   XY=             -0.0000   XZ=             -0.0012   YZ=              0.0867

 1\1\GINC-HEL14\SP\RwB97XD TD-FC\def2TZVP\C3H4\PRAKRITI\14-Aug-2021\0\\
 #P TD(Nstates=10000) wB97XD/def2TZVP SCF(maxcycles=100) Int(Grid=ultra
 fine)\\xGDB7_00001_tier4.com\\0,1\C,0,1.236673,0.000003,0.000003\C,0,-
 0.218742,-0.000006,-0.000005\C,0,-1.41578,0.000004,-0.000001\H,0,1.622
 045,0.979039,0.288094\H,0,1.62207,-0.240023,-0.991898\H,0,1.622037,-0.
 739019,0.703815\H,0,-2.479058,-0.000005,0.000008\\Version=EM64L-G16Rev
 C.01\State=1-A\HF=-116.6549104\RMSD=6.388e-09\PG=C01 [X(C3H4)]\\@
 The archive entry for this job was punched.

 Normal termination of Gaussian 16 at Sat Aug 14 06:21:39 2021.
