 Gaussian 16, Revision C.01,
 Gaussian 16:  EM64L-G16RevC.01  3-Jul-2019

 ----------------------------------------------------------------------
 #P TD(Nstates=10000) wB97XD/def2TZVP SCF(maxcycles=100) Int(Grid=ultra
 fine)
 ----------------------------------------------------------------------

 ---------------------
 xGDB7_00001_tier4.com
 ---------------------
 Symbolic Z-matrix:
 Charge =  0 Multiplicity = 1

                         Standard orientation:
 ---------------------------------------------------------------------
 Center     Atomic      Atomic             Coordinates (Angstroms)
 Number     Number       Type             X           Y           Z
 ---------------------------------------------------------------------
      1          7           0        1.078471   -0.156900   -0.000001
      2          6           0       -0.161963    0.384944   -0.000002
      3          8           0       -1.189170   -0.245458    0.000001
      4          1           0        1.898427    0.419427    0.000004
      5          1           0        1.178124   -1.157073    0.000005
      6          1           0       -0.140706    1.489948    0.000007
 ---------------------------------------------------------------------

 SCF Done:  E(RwB97XD) =  -169.911896563     A.U. after   15 cycles

 Excitation energies and oscillator strengths:

 Excited State   1:      Singlet-A      5.7678 eV  214.96 nm  f=0.0010  <S**2>=0.000
      12 -> 13         0.70507
 This state for optimization and/or second-order correction.
 Total Energy, E(TD-HF/TD-DFT) =  -169.699935340
 Copying the excited state density for this state as the 1-particle RhoCI density.

 Excited State   2:      Singlet-A      7.7606 eV  159.76 nm  f=0.0473  <S**2>=0.000
      11 -> 13         0.53676
      12 -> 14         0.44185

 Excited State   3:      Singlet-A      7.8951 eV  157.04 nm  f=0.0126  <S**2>=0.000
      11 -> 14         0.69686

 Excited State   4:      Singlet-A      8.6823 eV  142.80 nm  f=0.2959  <S**2>=0.000
      11 -> 13        -0.39771
      12 -> 14         0.49083
      12 -> 15         0.29399

 Excited State   5:      Singlet-A      8.7355 eV  141.93 nm  f=0.1755  <S**2>=0.000
      11 -> 13         0.18491
      12 -> 14        -0.20247
      12 -> 15         0.62494
      12 -> 16         0.14253

 Excited State   6:      Singlet-A      8.7810 eV  141.20 nm  f=0.0005  <S**2>=0.000
      11 -> 15         0.69425

 Excited State   7:      Singlet-A      9.9455 eV  124.66 nm  f=0.0171  <S**2>=0.000
      12 -> 14         0.12675
      12 -> 15        -0.10939
      12 -> 16         0.52091
      12 -> 17         0.43812

 Excited State   8:      Singlet-A     10.2191 eV  121.33 nm  f=0.0023  <S**2>=0.000
      11 -> 16         0.68157

 Excited State   9:      Singlet-A     10.2789 eV  120.62 nm  f=0.0022  <S**2>=0.000
       9 -> 13         0.69818

 Excited State  10:      Singlet-A     10.2895 eV  120.50 nm  f=0.0189  <S**2>=0.000
      12 -> 16        -0.44040
      12 -> 17         0.53758

 Excited State  11:      Singlet-A     10.7579 eV  115.25 nm  f=0.0143  <S**2>=0.000
      11 -> 17         0.69245

 Excited State  12:      Singlet-A     11.4234 eV  108.54 nm  f=0.0945  <S**2>=0.000
      10 -> 13         0.64728
      12 -> 18         0.17734

 Excited State  13:      Singlet-A     11.9671 eV  103.60 nm  f=0.0137  <S**2>=0.000
      10 -> 14         0.66170
      11 -> 18         0.15872

 Excited State  14:      Singlet-A     11.9995 eV  103.32 nm  f=0.0318  <S**2>=0.000
       9 -> 14        -0.12604
      10 -> 13        -0.14446
      12 -> 18         0.66709

 Excited State  15:      Singlet-A     12.1865 eV  101.74 nm  f=0.0244  <S**2>=0.000
       8 -> 13         0.52460
      10 -> 15        -0.21910
      11 -> 18        -0.36313
      12 -> 19        -0.14374

 Excited State  16:      Singlet-A     12.2197 eV  101.46 nm  f=0.0002  <S**2>=0.000
       8 -> 13         0.38437
      10 -> 14        -0.14439
      11 -> 18         0.34708
      12 -> 19         0.44786

 Excited State  17:      Singlet-A     12.2818 eV  100.95 nm  f=0.0347  <S**2>=0.000
       8 -> 13        -0.19482
      11 -> 18        -0.41809
      12 -> 19         0.51834

 Excited State  18:      Singlet-A     12.4105 eV   99.90 nm  f=0.0768  <S**2>=0.000
       9 -> 14         0.66231
      10 -> 13        -0.11911
      12 -> 18         0.10772

 Excited State  19:      Singlet-A     12.6710 eV   97.85 nm  f=0.0207  <S**2>=0.000
       8 -> 13         0.14788
      10 -> 15         0.64026
      11 -> 18        -0.18525
      11 -> 20        -0.13038

 Excited State  20:      Singlet-A     12.7428 eV   97.30 nm  f=0.0328  <S**2>=0.000
       9 -> 15        -0.11993
      11 -> 19         0.68705

 Excited State  21:      Singlet-A     13.0916 eV   94.71 nm  f=0.1041  <S**2>=0.000
       9 -> 15         0.67874
      11 -> 19         0.12104

 Excited State  22:      Singlet-A     13.6190 eV   91.04 nm  f=0.0108  <S**2>=0.000
      10 -> 15         0.13625
      11 -> 20         0.67400

 Excited State  23:      Singlet-A     13.7605 eV   90.10 nm  f=0.0484  <S**2>=0.000
       8 -> 14        -0.33796
      12 -> 20         0.58163

 Excited State  24:      Singlet-A     13.8713 eV   89.38 nm  f=0.0780  <S**2>=0.000
       8 -> 14         0.55417
       9 -> 16         0.14010
       9 -> 17         0.11983
      12 -> 20         0.35387
      12 -> 21         0.10034

 Excited State  25:      Singlet-A     14.0692 eV   88.12 nm  f=0.0121  <S**2>=0.000
      10 -> 16         0.67446
      10 -> 17         0.11903

 Excited State  26:      Singlet-A     14.4489 eV   85.81 nm  f=0.1517  <S**2>=0.000
      10 -> 16        -0.10758
      10 -> 17         0.66046
      11 -> 21        -0.14663

 Excited State  27:      Singlet-A     14.5194 eV   85.39 nm  f=0.0032  <S**2>=0.000
       8 -> 14        -0.16447
       9 -> 14         0.10801
       9 -> 16         0.60662
       9 -> 17         0.21273

 Excited State  28:      Singlet-A     14.5268 eV   85.35 nm  f=0.0026  <S**2>=0.000
       7 -> 13         0.69017

 Excited State  29:      Singlet-A     14.5506 eV   85.21 nm  f=0.1832  <S**2>=0.000
       8 -> 15         0.24754
       9 -> 16        -0.18377
       9 -> 17         0.60655

 Excited State  30:      Singlet-A     14.5909 eV   84.97 nm  f=0.2110  <S**2>=0.000
       8 -> 15         0.63687
       9 -> 16         0.12972
       9 -> 17        -0.21204

 Excited State  31:      Singlet-A     15.3350 eV   80.85 nm  f=0.0524  <S**2>=0.000
       8 -> 16        -0.16906
      10 -> 19        -0.10832
      12 -> 21         0.63818

 Excited State  32:      Singlet-A     15.3825 eV   80.60 nm  f=0.0220  <S**2>=0.000
      10 -> 17         0.13829
      10 -> 18         0.30974
      11 -> 21         0.59710

 Excited State  33:      Singlet-A     15.5636 eV   79.66 nm  f=0.1497  <S**2>=0.000
       7 -> 14         0.66228
      10 -> 19         0.13098
      11 -> 23         0.11506

 Excited State  34:      Singlet-A     15.8995 eV   77.98 nm  f=0.0237  <S**2>=0.000
       7 -> 15        -0.18025
       8 -> 16         0.51859
       9 -> 16        -0.13631
      10 -> 19         0.24612
      11 -> 23         0.15942
      12 -> 21         0.17575
      12 -> 22         0.15618

 Excited State  35:      Singlet-A     15.9424 eV   77.77 nm  f=0.0438  <S**2>=0.000
       6 -> 13        -0.12032
      10 -> 18         0.60851
      11 -> 21        -0.30227

 Excited State  36:      Singlet-A     16.2566 eV   76.27 nm  f=0.0203  <S**2>=0.000
       7 -> 15         0.14671
       8 -> 16         0.16918
       8 -> 17         0.19467
       9 -> 18         0.58515
      10 -> 19        -0.18652

 Excited State  37:      Singlet-A     16.3531 eV   75.82 nm  f=0.0348  <S**2>=0.000
       7 -> 14         0.10362
       7 -> 15         0.11228
       8 -> 16         0.13287
       8 -> 17         0.15848
       9 -> 18        -0.15335
      10 -> 19        -0.29432
      11 -> 23        -0.15472
      12 -> 22         0.51045

 Excited State  38:      Singlet-A     16.4153 eV   75.53 nm  f=0.0078  <S**2>=0.000
       6 -> 13         0.33371
       9 -> 19         0.14321
      10 -> 20        -0.13378
      11 -> 22         0.57105

 Excited State  39:      Singlet-A     16.4637 eV   75.31 nm  f=0.1535  <S**2>=0.000
       8 -> 16         0.12116
       8 -> 17         0.42062
       9 -> 18        -0.29254
      12 -> 22        -0.21613
      12 -> 24        -0.35572
      12 -> 25        -0.16617

 Excited State  40:      Singlet-A     16.6219 eV   74.59 nm  f=0.0492  <S**2>=0.000
       7 -> 15         0.50094
       8 -> 16         0.23611
       8 -> 17        -0.34590
       9 -> 18        -0.11884
      12 -> 22        -0.15583

 Excited State  41:      Singlet-A     16.6381 eV   74.52 nm  f=0.0007  <S**2>=0.000
       9 -> 19         0.65239
      11 -> 22        -0.19093
      12 -> 23         0.12349

 Excited State  42:      Singlet-A     16.7605 eV   73.97 nm  f=0.0138  <S**2>=0.000
       7 -> 15         0.22751
       8 -> 17         0.20509
      10 -> 19         0.49088
      11 -> 23        -0.32634
      12 -> 22         0.11780

 Excited State  43:      Singlet-A     16.8536 eV   73.57 nm  f=0.1246  <S**2>=0.000
       8 -> 16         0.12322
       8 -> 17         0.26819
      11 -> 23         0.10468
      12 -> 22        -0.22616
      12 -> 24         0.49623
      12 -> 25         0.23168

 Excited State  44:      Singlet-A     16.9011 eV   73.36 nm  f=0.0391  <S**2>=0.000
       6 -> 13         0.27623
       9 -> 19        -0.18001
      12 -> 23         0.60236

 Excited State  45:      Singlet-A     17.1251 eV   72.40 nm  f=0.0080  <S**2>=0.000
      10 -> 20         0.16093
      11 -> 22         0.11526
      11 -> 24         0.65171

 Excited State  46:      Singlet-A     17.3078 eV   71.63 nm  f=0.2842  <S**2>=0.000
       6 -> 13         0.49076
       9 -> 19        -0.11262
      10 -> 18         0.12828
      11 -> 22        -0.29968
      12 -> 23        -0.32004

 Excited State  47:      Singlet-A     17.3978 eV   71.26 nm  f=0.0034  <S**2>=0.000
       6 -> 14         0.39045
       7 -> 15        -0.23737
       7 -> 16        -0.13165
       8 -> 18         0.21699
      11 -> 23        -0.37616
      12 -> 22        -0.15922

 Excited State  48:      Singlet-A     17.7635 eV   69.80 nm  f=0.0440  <S**2>=0.000
       6 -> 13         0.12882
      10 -> 20         0.63982
      10 -> 22         0.10278
      11 -> 24        -0.17373

 Excited State  49:      Singlet-A     17.7995 eV   69.66 nm  f=0.0704  <S**2>=0.000
       7 -> 16         0.42189
       8 -> 18         0.38867
      12 -> 24        -0.14681
      12 -> 25         0.31910

 Excited State  50:      Singlet-A     17.9613 eV   69.03 nm  f=0.0051  <S**2>=0.000
       6 -> 14         0.54623
       6 -> 15        -0.13835
       7 -> 15         0.12608
       7 -> 16         0.22031
       8 -> 18        -0.22936
      11 -> 23         0.17648

 Excited State  51:      Singlet-A     18.1035 eV   68.49 nm  f=0.0613  <S**2>=0.000
       6 -> 15        -0.12379
       7 -> 16        -0.25129
       8 -> 18         0.20030
       9 -> 20         0.53852
      11 -> 23         0.14332
      12 -> 25         0.11868

 Excited State  52:      Singlet-A     18.2495 eV   67.94 nm  f=0.0334  <S**2>=0.000
       6 -> 15        -0.12441
       7 -> 16        -0.29123
       8 -> 18        -0.16108
       9 -> 20        -0.27894
      11 -> 23         0.11959
      12 -> 24        -0.20003
      12 -> 25         0.43030
      12 -> 26         0.12112
      12 -> 27         0.10321

 Excited State  53:      Singlet-A     18.2958 eV   67.77 nm  f=0.0834  <S**2>=0.000
       6 -> 15        -0.23606
       7 -> 16        -0.15113
       7 -> 17         0.12059
       8 -> 18         0.38995
       9 -> 20        -0.26862
       9 -> 21        -0.10679
      11 -> 23         0.15288
      12 -> 24         0.10171
      12 -> 25        -0.27789

 Excited State  54:      Singlet-A     18.3230 eV   67.67 nm  f=0.0094  <S**2>=0.000
       8 -> 19         0.69098

 Excited State  55:      Singlet-A     18.6461 eV   66.49 nm  f=0.0047  <S**2>=0.000
      10 -> 21         0.14337
      11 -> 25         0.66761

 Excited State  56:      Singlet-A     18.8474 eV   65.78 nm  f=0.0319  <S**2>=0.000
       7 -> 17        -0.22482
       9 -> 21         0.16024
      12 -> 26         0.54887
      12 -> 27         0.21226
      12 -> 29        -0.16588

 Excited State  57:      Singlet-A     18.9538 eV   65.41 nm  f=0.0470  <S**2>=0.000
       6 -> 14         0.12147
       6 -> 15         0.58057
       7 -> 16        -0.15758
       7 -> 17         0.12996
      11 -> 23         0.16128
      12 -> 28        -0.11556

 Excited State  58:      Singlet-A     19.0311 eV   65.15 nm  f=0.0104  <S**2>=0.000
       7 -> 16         0.14275
       7 -> 17         0.61361
      12 -> 26         0.18560

 Excited State  59:      Singlet-A     19.0657 eV   65.03 nm  f=0.0026  <S**2>=0.000
      10 -> 21         0.66493
      11 -> 25        -0.13451

 Excited State  60:      Singlet-A     19.1717 eV   64.67 nm  f=0.0003  <S**2>=0.000
      11 -> 26         0.68989

 Excited State  61:      Singlet-A     19.3699 eV   64.01 nm  f=0.0221  <S**2>=0.000
       7 -> 18         0.13993
       8 -> 20        -0.22395
       9 -> 21         0.60559
      12 -> 26        -0.12192

 Excited State  62:      Singlet-A     19.8127 eV   62.58 nm  f=0.1297  <S**2>=0.000
       6 -> 16         0.24265
       6 -> 17        -0.12355
       7 -> 18        -0.13104
       8 -> 20         0.55156
       9 -> 21         0.21365
       9 -> 22        -0.10526

 Excited State  63:      Singlet-A     19.8799 eV   62.37 nm  f=0.0344  <S**2>=0.000
      10 -> 22         0.12118
      10 -> 24        -0.18825
      11 -> 27         0.60114
      11 -> 28        -0.20003
      12 -> 30         0.16869

 Excited State  64:      Singlet-A     20.0645 eV   61.79 nm  f=0.0004  <S**2>=0.000
       7 -> 19         0.13656
      11 -> 27        -0.14815
      12 -> 30         0.65889

 Excited State  65:      Singlet-A     20.1034 eV   61.67 nm  f=0.0617  <S**2>=0.000
       6 -> 16         0.48778
       6 -> 17        -0.13551
       7 -> 18         0.25629
       8 -> 20        -0.10106
      12 -> 26         0.16083
      12 -> 27        -0.30113

 Excited State  66:      Singlet-A     20.2211 eV   61.31 nm  f=0.0583  <S**2>=0.000
       7 -> 17        -0.11675
       7 -> 18         0.56836
       8 -> 20         0.17746
      12 -> 27         0.15362
      12 -> 28         0.25406

 Excited State  67:      Singlet-A     20.2541 eV   61.21 nm  f=0.0343  <S**2>=0.000
      10 -> 20        -0.10545
      10 -> 22         0.64943
      11 -> 27        -0.15412
      11 -> 28        -0.10428

 Excited State  68:      Singlet-A     20.2687 eV   61.17 nm  f=0.0921  <S**2>=0.000
       6 -> 16         0.34196
       8 -> 20        -0.18901
      10 -> 23         0.11877
      11 -> 30         0.10901
      12 -> 26        -0.25058
      12 -> 27         0.44177
      12 -> 29        -0.14524

 Excited State  69:      Singlet-A     20.5378 eV   60.37 nm  f=0.0106  <S**2>=0.000
       7 -> 19         0.61098
       8 -> 23         0.10320
       9 -> 23         0.23964
      11 -> 28        -0.10986
      12 -> 30        -0.15198

 Excited State  70:      Singlet-A     20.6118 eV   60.15 nm  f=0.0461  <S**2>=0.000
       6 -> 16         0.15080
       6 -> 17         0.11644
       7 -> 18        -0.11814
       9 -> 22         0.23546
       9 -> 24         0.10539
       9 -> 25         0.11501
      10 -> 23        -0.33413
      12 -> 27        -0.12924
      12 -> 28         0.43574

 Excited State  71:      Singlet-A     20.7159 eV   59.85 nm  f=0.0067  <S**2>=0.000
       6 -> 16         0.12607
       6 -> 17         0.38808
       8 -> 21        -0.18450
       9 -> 22         0.27105
      10 -> 23        -0.10350
      11 -> 30        -0.13330
      12 -> 28        -0.36142

 Excited State  72:      Singlet-A     20.7194 eV   59.84 nm  f=0.1325  <S**2>=0.000
       7 -> 19         0.11087
      10 -> 22         0.15799
      10 -> 24         0.20489
      10 -> 26        -0.10267
      11 -> 27         0.18958
      11 -> 28         0.46031
      11 -> 29        -0.36381

 Excited State  73:      Singlet-A     20.7703 eV   59.69 nm  f=0.0472  <S**2>=0.000
       6 -> 17        -0.18467
       9 -> 20        -0.11851
       9 -> 22         0.53133
      10 -> 23         0.35258
      11 -> 30         0.10229

 Excited State  74:      Singlet-A     20.9818 eV   59.09 nm  f=0.0596  <S**2>=0.000
      10 -> 21        -0.10015
      10 -> 24         0.54373
      11 -> 28        -0.38314
      11 -> 29        -0.15090

 Excited State  75:      Singlet-A     21.0415 eV   58.92 nm  f=0.0141  <S**2>=0.000
       8 -> 21         0.12739
       9 -> 24         0.45005
       9 -> 25         0.19620
      10 -> 23         0.16584
      11 -> 30        -0.40512

 Excited State  76:      Singlet-A     21.1035 eV   58.75 nm  f=0.0713  <S**2>=0.000
       6 -> 17         0.41501
       9 -> 25        -0.10157
      10 -> 23         0.36096
      12 -> 27        -0.21054
      12 -> 28         0.14057
      12 -> 29        -0.24207

 Excited State  77:      Singlet-A     21.1631 eV   58.59 nm  f=0.0082  <S**2>=0.000
       6 -> 17         0.20197
       8 -> 21         0.11673
      10 -> 23         0.13069
      12 -> 27         0.15634
      12 -> 28         0.11141
      12 -> 29         0.57052

 Excited State  78:      Singlet-A     21.1716 eV   58.56 nm  f=0.0378  <S**2>=0.000
      10 -> 24         0.30400
      11 -> 27         0.16978
      11 -> 28         0.24773
      11 -> 29         0.53809

 Excited State  79:      Singlet-A     21.3339 eV   58.12 nm  f=0.0623  <S**2>=0.000
       6 -> 17         0.11025
       6 -> 18         0.14260
       8 -> 21         0.60035
       9 -> 22         0.12634
       9 -> 24        -0.11610
      10 -> 23        -0.13906

 Excited State  80:      Singlet-A     21.3365 eV   58.11 nm  f=0.0082  <S**2>=0.000
       7 -> 19        -0.26899
       9 -> 23         0.63804

 Excited State  81:      Singlet-A     21.7479 eV   57.01 nm  f=0.0528  <S**2>=0.000
       6 -> 18         0.15285
       7 -> 20         0.60427
       8 -> 21        -0.10130
       8 -> 22         0.21212

 Excited State  82:      Singlet-A     21.8745 eV   56.68 nm  f=0.0067  <S**2>=0.000
       6 -> 18         0.37459
       8 -> 22        -0.18245
       9 -> 24         0.35616
       9 -> 25        -0.13761
      11 -> 30         0.33561
      12 -> 31        -0.12043

 Excited State  83:      Singlet-A     22.1272 eV   56.03 nm  f=0.0524  <S**2>=0.000
       6 -> 18         0.52490
       7 -> 20        -0.15436
       8 -> 21        -0.10326
       9 -> 24        -0.17593
       9 -> 26        -0.11504
      11 -> 30        -0.24749
      12 -> 31         0.10838

 Excited State  84:      Singlet-A     22.1848 eV   55.89 nm  f=0.0007  <S**2>=0.000
       6 -> 19         0.47199
       8 -> 23         0.38320
      10 -> 25        -0.30028
      10 -> 26         0.10926

 Excited State  85:      Singlet-A     22.4345 eV   55.26 nm  f=0.0295  <S**2>=0.000
       6 -> 19         0.19923
       8 -> 23         0.23772
      10 -> 25         0.59906

 Excited State  86:      Singlet-A     22.5518 eV   54.98 nm  f=0.2198  <S**2>=0.000
       8 -> 21         0.10696
       8 -> 22         0.42274
       8 -> 24        -0.10879
       9 -> 24         0.21456
       9 -> 25        -0.41635

 Excited State  87:      Singlet-A     22.7027 eV   54.61 nm  f=0.0151  <S**2>=0.000
       7 -> 20        -0.13385
       8 -> 22         0.36705
       8 -> 25        -0.10901
       9 -> 25         0.38221
      11 -> 30         0.16883
      12 -> 31        -0.27698

 Excited State  88:      Singlet-A     22.8352 eV   54.30 nm  f=0.0052  <S**2>=0.000
       6 -> 19        -0.45090
       8 -> 23         0.50323
      10 -> 26        -0.12358

 Excited State  89:      Singlet-A     23.0567 eV   53.77 nm  f=0.0000  <S**2>=0.000
       6 -> 19        -0.14504
      10 -> 25         0.10591
      10 -> 26         0.61483
      10 -> 27         0.20111
      10 -> 29        -0.10236
      11 -> 29        -0.12786

 Excited State  90:      Singlet-A     23.2166 eV   53.40 nm  f=0.1703  <S**2>=0.000
       8 -> 22         0.11175
       8 -> 24         0.62270
       9 -> 26        -0.15886
       9 -> 27        -0.14235

 Excited State  91:      Singlet-A     23.5297 eV   52.69 nm  f=0.0286  <S**2>=0.000
       6 -> 20         0.50115
       7 -> 21        -0.40422
       7 -> 22         0.10769
       9 -> 26         0.14840

 Excited State  92:      Singlet-A     23.6820 eV   52.35 nm  f=0.2423  <S**2>=0.000
       6 -> 20        -0.29569
       7 -> 21        -0.16400
       8 -> 24         0.12857
       9 -> 26         0.47350
      11 -> 32        -0.11568
      12 -> 31         0.25822

 Excited State  93:      Singlet-A     23.7662 eV   52.17 nm  f=0.1714  <S**2>=0.000
       6 -> 20         0.28812
       7 -> 21         0.50828
       7 -> 22         0.16109
       8 -> 22         0.11653
       8 -> 24         0.11176
       9 -> 26         0.24173
      12 -> 31         0.11826

 Excited State  94:      Singlet-A     23.9134 eV   51.85 nm  f=0.0023  <S**2>=0.000
       7 -> 23        -0.10226
      12 -> 32         0.67596

 Excited State  95:      Singlet-A     24.0693 eV   51.51 nm  f=0.0001  <S**2>=0.000
      10 -> 26        -0.23176
      10 -> 27         0.61075
      10 -> 29        -0.14340

 Excited State  96:      Singlet-A     24.1455 eV   51.35 nm  f=0.0195  <S**2>=0.000
       7 -> 22         0.53853
       9 -> 26        -0.22191
      10 -> 30         0.18435
      11 -> 32        -0.22206
      12 -> 31         0.15300

 Excited State  97:      Singlet-A     24.1734 eV   51.29 nm  f=0.0374  <S**2>=0.000
       5 -> 13         0.15951
       9 -> 30        -0.19784
      10 -> 28         0.50328
      11 -> 31         0.38594

 Excited State  98:      Singlet-A     24.2130 eV   51.21 nm  f=0.0002  <S**2>=0.000
       5 -> 13        -0.13369
       7 -> 23         0.48482
       9 -> 30         0.39663
      10 -> 27         0.13553

 The electronic state is 1-A.
 Alpha  occ. eigenvalues --  -19.21963 -14.46470 -10.38938  -1.14630  -1.01819
 Alpha  occ. eigenvalues --   -0.72635  -0.65504  -0.57627  -0.50863  -0.50392
 Alpha  occ. eigenvalues --   -0.36717  -0.34978
 Alpha virt. eigenvalues --    0.09232   0.10553   0.13795   0.18633   0.22159
 Alpha virt. eigenvalues --    0.27041   0.29622   0.33947   0.39276   0.43903
 Alpha virt. eigenvalues --    0.45077   0.45661   0.51128   0.54030   0.57281

 Mulliken charges:
               1
     1  N   -0.445839
     2  C    0.232264
     3  O   -0.369884
     4  H    0.257192
     5  H    0.260517
     6  H    0.065750
 Sum of Mulliken charges =  -0.00000

 Dipole moment (field-independent basis, Debye):
    X=              3.9087    Y=              0.8861    Z=              0.0000  Tot=              4.0079
 Quadrupole moment (field-independent basis, Debye-Ang):
   XX=            -17.7491   YY=            -15.1500   ZZ=            -18.7816
   XY=             -1.1986   XZ=              0.0000   YZ=             -0.0000

 Normal termination of Gaussian 16 at Sat Aug 14 06:21:58 2021.
